<?xml version="1.0" encoding="UTF-8"?>

<!-- generated on Mon Feb 27 12:53:31 2017 by SUMO Version 0.29.0
<?xml version="1.0" encoding="UTF-8"?>

<configuration xmlns:xsi="http://www.w3.org/2001/XMLSchema-instance" xsi:noNamespaceSchemaLocation="http://sumo.dlr.de/xsd/sumoConfiguration.xsd">

    <input>
        <net-file value="tests/debug/cfg/test-two-lane-two-controller-200m2l.net.xml"/>
        <route-files value="tests/debug/cfg/test-two-lane-two-controller-200m2l.rou.xml"/>
        <additional-files value="tests/debug/cfg/test-two-lane-two-controller-200m2l.add.xml"/>
    </input>

    <output>
        <netstate-dump value="tests/debug/cfg/data/test-two-lane-two-controller-200m2l.netstate.xml"/>
        <emission-output value="tests/debug/cfg/data/test-two-lane-two-controller-200m2l.emission.xml"/>
        <amitran-output value="tests/debug/cfg/data/test-two-lane-two-controller-200m2l.amitran.xml"/>
        <lanechange-output value="tests/debug/cfg/data/test-two-lane-two-controller-200m2l.lanechange.xml"/>
    </output>

    <time>
        <begin value="0"/>
        <end value="1000"/>
        <step-length value="0.01"/>
    </time>

    <traci_server>
        <remote-port value="8873"/>
    </traci_server>

    <gui_only>
        <gui-settings-file value="tests/debug/cfg/test-two-lane-two-controller-200m2l.gui.cfg"/>
    </gui_only>

</configuration>
-->

<netstate xmlns:xsi="http://www.w3.org/2001/XMLSchema-instance" xsi:noNamespaceSchemaLocation="http://sumo.dlr.de/xsd/netstate_file.xsd">
    <timestep time="0.00">
        <edge id="bottom">
            <lane id="bottom_0">
                <vehicle id="cfm-slow_0" pos="1.00" speed="0.00"/>
                <vehicle id="cfm-slow_1" pos="16.83" speed="0.00"/>
                <vehicle id="cfm-slow_2" pos="32.67" speed="0.00"/>
                <vehicle id="cfm-slow_3" pos="48.50" speed="0.00"/>
            </lane>
            <lane id="bottom_1"/>
        </edge>
        <edge id="left">
            <lane id="left_0">
                <vehicle id="cfm-fast_4" pos="9.33" speed="0.00"/>
                <vehicle id="cfm-fast_5" pos="25.17" speed="0.00"/>
            </lane>
            <lane id="left_1"/>
        </edge>
        <edge id="right">
            <lane id="right_0">
                <vehicle id="cfm-slow_4" pos="14.33" speed="0.00"/>
                <vehicle id="cfm-slow_5" pos="30.17" speed="0.00"/>
                <vehicle id="cfm-fast_0" pos="46.00" speed="0.00"/>
            </lane>
            <lane id="right_1"/>
        </edge>
        <edge id="top">
            <lane id="top_0">
                <vehicle id="cfm-fast_1" pos="11.83" speed="0.00"/>
                <vehicle id="cfm-fast_2" pos="27.67" speed="0.00"/>
                <vehicle id="cfm-fast_3" pos="43.50" speed="0.00"/>
            </lane>
            <lane id="top_1"/>
        </edge>
    </timestep>
    <timestep time="0.01">
        <edge id="bottom">
            <lane id="bottom_0">
                <vehicle id="cfm-slow_0" pos="1.00" speed="0.14"/>
                <vehicle id="cfm-slow_1" pos="16.83" speed="0.14"/>
                <vehicle id="cfm-slow_2" pos="32.67" speed="0.14"/>
                <vehicle id="cfm-slow_3" pos="48.50" speed="0.14"/>
            </lane>
            <lane id="bottom_1"/>
        </edge>
        <edge id="left">
            <lane id="left_0">
                <vehicle id="cfm-fast_4" pos="9.33" speed="0.14"/>
                <vehicle id="cfm-fast_5" pos="25.17" speed="0.14"/>
            </lane>
            <lane id="left_1"/>
        </edge>
        <edge id="right">
            <lane id="right_0">
                <vehicle id="cfm-slow_4" pos="14.33" speed="0.14"/>
                <vehicle id="cfm-slow_5" pos="30.17" speed="0.14"/>
                <vehicle id="cfm-fast_0" pos="46.00" speed="0.14"/>
            </lane>
            <lane id="right_1"/>
        </edge>
        <edge id="top">
            <lane id="top_0">
                <vehicle id="cfm-fast_1" pos="11.83" speed="0.14"/>
                <vehicle id="cfm-fast_2" pos="27.67" speed="0.14"/>
                <vehicle id="cfm-fast_3" pos="43.50" speed="0.14"/>
            </lane>
            <lane id="top_1"/>
        </edge>
    </timestep>
    <timestep time="0.02">
        <edge id="bottom">
            <lane id="bottom_0">
                <vehicle id="cfm-slow_0" pos="1.00" speed="0.27"/>
                <vehicle id="cfm-slow_1" pos="16.84" speed="0.27"/>
                <vehicle id="cfm-slow_2" pos="32.67" speed="0.27"/>
                <vehicle id="cfm-slow_3" pos="48.50" speed="0.27"/>
            </lane>
            <lane id="bottom_1"/>
        </edge>
        <edge id="left">
            <lane id="left_0">
                <vehicle id="cfm-fast_4" pos="9.34" speed="0.27"/>
                <vehicle id="cfm-fast_5" pos="25.17" speed="0.27"/>
            </lane>
            <lane id="left_1"/>
        </edge>
        <edge id="right">
            <lane id="right_0">
                <vehicle id="cfm-slow_4" pos="14.34" speed="0.27"/>
                <vehicle id="cfm-slow_5" pos="30.17" speed="0.27"/>
                <vehicle id="cfm-fast_0" pos="46.00" speed="0.27"/>
            </lane>
            <lane id="right_1"/>
        </edge>
        <edge id="top">
            <lane id="top_0">
                <vehicle id="cfm-fast_1" pos="11.84" speed="0.27"/>
                <vehicle id="cfm-fast_2" pos="27.67" speed="0.27"/>
                <vehicle id="cfm-fast_3" pos="43.50" speed="0.27"/>
            </lane>
            <lane id="top_1"/>
        </edge>
    </timestep>
    <timestep time="0.03">
        <edge id="bottom">
            <lane id="bottom_0">
                <vehicle id="cfm-slow_0" pos="1.01" speed="0.41"/>
                <vehicle id="cfm-slow_1" pos="16.84" speed="0.41"/>
                <vehicle id="cfm-slow_2" pos="32.67" speed="0.41"/>
                <vehicle id="cfm-slow_3" pos="48.51" speed="0.41"/>
            </lane>
            <lane id="bottom_1"/>
        </edge>
        <edge id="left">
            <lane id="left_0">
                <vehicle id="cfm-fast_4" pos="9.34" speed="0.41"/>
                <vehicle id="cfm-fast_5" pos="25.17" speed="0.41"/>
            </lane>
            <lane id="left_1"/>
        </edge>
        <edge id="right">
            <lane id="right_0">
                <vehicle id="cfm-slow_4" pos="14.34" speed="0.41"/>
                <vehicle id="cfm-slow_5" pos="30.17" speed="0.41"/>
                <vehicle id="cfm-fast_0" pos="46.01" speed="0.41"/>
            </lane>
            <lane id="right_1"/>
        </edge>
        <edge id="top">
            <lane id="top_0">
                <vehicle id="cfm-fast_1" pos="11.84" speed="0.41"/>
                <vehicle id="cfm-fast_2" pos="27.67" speed="0.41"/>
                <vehicle id="cfm-fast_3" pos="43.51" speed="0.41"/>
            </lane>
            <lane id="top_1"/>
        </edge>
    </timestep>
    <timestep time="0.04">
        <edge id="bottom">
            <lane id="bottom_0">
                <vehicle id="cfm-slow_0" pos="1.01" speed="0.55"/>
                <vehicle id="cfm-slow_1" pos="16.85" speed="0.55"/>
                <vehicle id="cfm-slow_2" pos="32.68" speed="0.55"/>
                <vehicle id="cfm-slow_3" pos="48.51" speed="0.55"/>
            </lane>
            <lane id="bottom_1"/>
        </edge>
        <edge id="left">
            <lane id="left_0">
                <vehicle id="cfm-fast_4" pos="9.35" speed="0.55"/>
                <vehicle id="cfm-fast_5" pos="25.18" speed="0.55"/>
            </lane>
            <lane id="left_1"/>
        </edge>
        <edge id="right">
            <lane id="right_0">
                <vehicle id="cfm-slow_4" pos="14.35" speed="0.55"/>
                <vehicle id="cfm-slow_5" pos="30.18" speed="0.55"/>
                <vehicle id="cfm-fast_0" pos="46.01" speed="0.55"/>
            </lane>
            <lane id="right_1"/>
        </edge>
        <edge id="top">
            <lane id="top_0">
                <vehicle id="cfm-fast_1" pos="11.85" speed="0.55"/>
                <vehicle id="cfm-fast_2" pos="27.68" speed="0.55"/>
                <vehicle id="cfm-fast_3" pos="43.51" speed="0.55"/>
            </lane>
            <lane id="top_1"/>
        </edge>
    </timestep>
    <timestep time="0.05">
        <edge id="bottom">
            <lane id="bottom_0">
                <vehicle id="cfm-slow_0" pos="1.02" speed="0.68"/>
                <vehicle id="cfm-slow_1" pos="16.85" speed="0.68"/>
                <vehicle id="cfm-slow_2" pos="32.69" speed="0.68"/>
                <vehicle id="cfm-slow_3" pos="48.52" speed="0.68"/>
            </lane>
            <lane id="bottom_1"/>
        </edge>
        <edge id="left">
            <lane id="left_0">
                <vehicle id="cfm-fast_4" pos="9.35" speed="0.68"/>
                <vehicle id="cfm-fast_5" pos="25.19" speed="0.68"/>
            </lane>
            <lane id="left_1"/>
        </edge>
        <edge id="right">
            <lane id="right_0">
                <vehicle id="cfm-slow_4" pos="14.35" speed="0.68"/>
                <vehicle id="cfm-slow_5" pos="30.19" speed="0.68"/>
                <vehicle id="cfm-fast_0" pos="46.02" speed="0.68"/>
            </lane>
            <lane id="right_1"/>
        </edge>
        <edge id="top">
            <lane id="top_0">
                <vehicle id="cfm-fast_1" pos="11.85" speed="0.68"/>
                <vehicle id="cfm-fast_2" pos="27.69" speed="0.68"/>
                <vehicle id="cfm-fast_3" pos="43.52" speed="0.68"/>
            </lane>
            <lane id="top_1"/>
        </edge>
    </timestep>
    <timestep time="0.06">
        <edge id="bottom">
            <lane id="bottom_0">
                <vehicle id="cfm-slow_0" pos="1.03" speed="0.82"/>
                <vehicle id="cfm-slow_1" pos="16.86" speed="0.82"/>
                <vehicle id="cfm-slow_2" pos="32.70" speed="0.82"/>
                <vehicle id="cfm-slow_3" pos="48.53" speed="0.82"/>
            </lane>
            <lane id="bottom_1"/>
        </edge>
        <edge id="left">
            <lane id="left_0">
                <vehicle id="cfm-fast_4" pos="9.36" speed="0.82"/>
                <vehicle id="cfm-fast_5" pos="25.20" speed="0.82"/>
            </lane>
            <lane id="left_1"/>
        </edge>
        <edge id="right">
            <lane id="right_0">
                <vehicle id="cfm-slow_4" pos="14.36" speed="0.82"/>
                <vehicle id="cfm-slow_5" pos="30.20" speed="0.82"/>
                <vehicle id="cfm-fast_0" pos="46.03" speed="0.82"/>
            </lane>
            <lane id="right_1"/>
        </edge>
        <edge id="top">
            <lane id="top_0">
                <vehicle id="cfm-fast_1" pos="11.86" speed="0.82"/>
                <vehicle id="cfm-fast_2" pos="27.70" speed="0.82"/>
                <vehicle id="cfm-fast_3" pos="43.53" speed="0.82"/>
            </lane>
            <lane id="top_1"/>
        </edge>
    </timestep>
    <timestep time="0.07">
        <edge id="bottom">
            <lane id="bottom_0">
                <vehicle id="cfm-slow_0" pos="1.04" speed="0.95"/>
                <vehicle id="cfm-slow_1" pos="16.87" speed="0.95"/>
                <vehicle id="cfm-slow_2" pos="32.70" speed="0.95"/>
                <vehicle id="cfm-slow_3" pos="48.54" speed="0.95"/>
            </lane>
            <lane id="bottom_1"/>
        </edge>
        <edge id="left">
            <lane id="left_0">
                <vehicle id="cfm-fast_4" pos="9.37" speed="0.95"/>
                <vehicle id="cfm-fast_5" pos="25.20" speed="0.95"/>
            </lane>
            <lane id="left_1"/>
        </edge>
        <edge id="right">
            <lane id="right_0">
                <vehicle id="cfm-slow_4" pos="14.37" speed="0.95"/>
                <vehicle id="cfm-slow_5" pos="30.20" speed="0.95"/>
                <vehicle id="cfm-fast_0" pos="46.04" speed="0.95"/>
            </lane>
            <lane id="right_1"/>
        </edge>
        <edge id="top">
            <lane id="top_0">
                <vehicle id="cfm-fast_1" pos="11.87" speed="0.95"/>
                <vehicle id="cfm-fast_2" pos="27.70" speed="0.95"/>
                <vehicle id="cfm-fast_3" pos="43.54" speed="0.95"/>
            </lane>
            <lane id="top_1"/>
        </edge>
    </timestep>
    <timestep time="0.08">
        <edge id="bottom">
            <lane id="bottom_0">
                <vehicle id="cfm-slow_0" pos="1.05" speed="1.09"/>
                <vehicle id="cfm-slow_1" pos="16.88" speed="1.09"/>
                <vehicle id="cfm-slow_2" pos="32.72" speed="1.09"/>
                <vehicle id="cfm-slow_3" pos="48.55" speed="1.09"/>
            </lane>
            <lane id="bottom_1"/>
        </edge>
        <edge id="left">
            <lane id="left_0">
                <vehicle id="cfm-fast_4" pos="9.38" speed="1.09"/>
                <vehicle id="cfm-fast_5" pos="25.22" speed="1.09"/>
            </lane>
            <lane id="left_1"/>
        </edge>
        <edge id="right">
            <lane id="right_0">
                <vehicle id="cfm-slow_4" pos="14.38" speed="1.09"/>
                <vehicle id="cfm-slow_5" pos="30.22" speed="1.09"/>
                <vehicle id="cfm-fast_0" pos="46.05" speed="1.09"/>
            </lane>
            <lane id="right_1"/>
        </edge>
        <edge id="top">
            <lane id="top_0">
                <vehicle id="cfm-fast_1" pos="11.88" speed="1.09"/>
                <vehicle id="cfm-fast_2" pos="27.72" speed="1.09"/>
                <vehicle id="cfm-fast_3" pos="43.55" speed="1.09"/>
            </lane>
            <lane id="top_1"/>
        </edge>
    </timestep>
    <timestep time="0.09">
        <edge id="bottom">
            <lane id="bottom_0">
                <vehicle id="cfm-slow_0" pos="1.06" speed="1.23"/>
                <vehicle id="cfm-slow_1" pos="16.89" speed="1.23"/>
                <vehicle id="cfm-slow_2" pos="32.73" speed="1.23"/>
                <vehicle id="cfm-slow_3" pos="48.56" speed="1.23"/>
            </lane>
            <lane id="bottom_1"/>
        </edge>
        <edge id="left">
            <lane id="left_0">
                <vehicle id="cfm-fast_4" pos="9.39" speed="1.23"/>
                <vehicle id="cfm-fast_5" pos="25.23" speed="1.23"/>
            </lane>
            <lane id="left_1"/>
        </edge>
        <edge id="right">
            <lane id="right_0">
                <vehicle id="cfm-slow_4" pos="14.39" speed="1.23"/>
                <vehicle id="cfm-slow_5" pos="30.23" speed="1.23"/>
                <vehicle id="cfm-fast_0" pos="46.06" speed="1.23"/>
            </lane>
            <lane id="right_1"/>
        </edge>
        <edge id="top">
            <lane id="top_0">
                <vehicle id="cfm-fast_1" pos="11.89" speed="1.23"/>
                <vehicle id="cfm-fast_2" pos="27.73" speed="1.23"/>
                <vehicle id="cfm-fast_3" pos="43.56" speed="1.23"/>
            </lane>
            <lane id="top_1"/>
        </edge>
    </timestep>
    <timestep time="0.10">
        <edge id="bottom">
            <lane id="bottom_0">
                <vehicle id="cfm-slow_0" pos="1.08" speed="1.36"/>
                <vehicle id="cfm-slow_1" pos="16.91" speed="1.36"/>
                <vehicle id="cfm-slow_2" pos="32.74" speed="1.36"/>
                <vehicle id="cfm-slow_3" pos="48.58" speed="1.36"/>
            </lane>
            <lane id="bottom_1"/>
        </edge>
        <edge id="left">
            <lane id="left_0">
                <vehicle id="cfm-fast_4" pos="9.41" speed="1.36"/>
                <vehicle id="cfm-fast_5" pos="25.24" speed="1.36"/>
            </lane>
            <lane id="left_1"/>
        </edge>
        <edge id="right">
            <lane id="right_0">
                <vehicle id="cfm-slow_4" pos="14.41" speed="1.36"/>
                <vehicle id="cfm-slow_5" pos="30.24" speed="1.36"/>
                <vehicle id="cfm-fast_0" pos="46.08" speed="1.36"/>
            </lane>
            <lane id="right_1"/>
        </edge>
        <edge id="top">
            <lane id="top_0">
                <vehicle id="cfm-fast_1" pos="11.91" speed="1.36"/>
                <vehicle id="cfm-fast_2" pos="27.74" speed="1.36"/>
                <vehicle id="cfm-fast_3" pos="43.58" speed="1.36"/>
            </lane>
            <lane id="top_1"/>
        </edge>
    </timestep>
    <timestep time="0.11">
        <edge id="bottom">
            <lane id="bottom_0">
                <vehicle id="cfm-slow_0" pos="1.09" speed="1.50"/>
                <vehicle id="cfm-slow_1" pos="16.92" speed="1.50"/>
                <vehicle id="cfm-slow_2" pos="32.76" speed="1.50"/>
                <vehicle id="cfm-slow_3" pos="48.59" speed="1.50"/>
            </lane>
            <lane id="bottom_1"/>
        </edge>
        <edge id="left">
            <lane id="left_0">
                <vehicle id="cfm-fast_4" pos="9.42" speed="1.50"/>
                <vehicle id="cfm-fast_5" pos="25.26" speed="1.50"/>
            </lane>
            <lane id="left_1"/>
        </edge>
        <edge id="right">
            <lane id="right_0">
                <vehicle id="cfm-slow_4" pos="14.42" speed="1.50"/>
                <vehicle id="cfm-slow_5" pos="30.26" speed="1.50"/>
                <vehicle id="cfm-fast_0" pos="46.09" speed="1.50"/>
            </lane>
            <lane id="right_1"/>
        </edge>
        <edge id="top">
            <lane id="top_0">
                <vehicle id="cfm-fast_1" pos="11.92" speed="1.50"/>
                <vehicle id="cfm-fast_2" pos="27.76" speed="1.50"/>
                <vehicle id="cfm-fast_3" pos="43.59" speed="1.50"/>
            </lane>
            <lane id="top_1"/>
        </edge>
    </timestep>
    <timestep time="0.12">
        <edge id="bottom">
            <lane id="bottom_0">
                <vehicle id="cfm-slow_0" pos="1.11" speed="1.64"/>
                <vehicle id="cfm-slow_1" pos="16.94" speed="1.64"/>
                <vehicle id="cfm-slow_2" pos="32.77" speed="1.64"/>
                <vehicle id="cfm-slow_3" pos="48.61" speed="1.64"/>
            </lane>
            <lane id="bottom_1"/>
        </edge>
        <edge id="left">
            <lane id="left_0">
                <vehicle id="cfm-fast_4" pos="9.44" speed="1.64"/>
                <vehicle id="cfm-fast_5" pos="25.27" speed="1.64"/>
            </lane>
            <lane id="left_1"/>
        </edge>
        <edge id="right">
            <lane id="right_0">
                <vehicle id="cfm-slow_4" pos="14.44" speed="1.64"/>
                <vehicle id="cfm-slow_5" pos="30.27" speed="1.64"/>
                <vehicle id="cfm-fast_0" pos="46.11" speed="1.64"/>
            </lane>
            <lane id="right_1"/>
        </edge>
        <edge id="top">
            <lane id="top_0">
                <vehicle id="cfm-fast_1" pos="11.94" speed="1.64"/>
                <vehicle id="cfm-fast_2" pos="27.77" speed="1.64"/>
                <vehicle id="cfm-fast_3" pos="43.61" speed="1.64"/>
            </lane>
            <lane id="top_1"/>
        </edge>
    </timestep>
    <timestep time="0.13">
        <edge id="bottom">
            <lane id="bottom_0">
                <vehicle id="cfm-slow_0" pos="1.12" speed="1.77"/>
                <vehicle id="cfm-slow_1" pos="16.96" speed="1.77"/>
                <vehicle id="cfm-slow_2" pos="32.79" speed="1.77"/>
                <vehicle id="cfm-slow_3" pos="48.62" speed="1.77"/>
            </lane>
            <lane id="bottom_1"/>
        </edge>
        <edge id="left">
            <lane id="left_0">
                <vehicle id="cfm-fast_4" pos="9.46" speed="1.77"/>
                <vehicle id="cfm-fast_5" pos="25.29" speed="1.77"/>
            </lane>
            <lane id="left_1"/>
        </edge>
        <edge id="right">
            <lane id="right_0">
                <vehicle id="cfm-slow_4" pos="14.46" speed="1.77"/>
                <vehicle id="cfm-slow_5" pos="30.29" speed="1.77"/>
                <vehicle id="cfm-fast_0" pos="46.12" speed="1.77"/>
            </lane>
            <lane id="right_1"/>
        </edge>
        <edge id="top">
            <lane id="top_0">
                <vehicle id="cfm-fast_1" pos="11.96" speed="1.77"/>
                <vehicle id="cfm-fast_2" pos="27.79" speed="1.77"/>
                <vehicle id="cfm-fast_3" pos="43.62" speed="1.77"/>
            </lane>
            <lane id="top_1"/>
        </edge>
    </timestep>
    <timestep time="0.14">
        <edge id="bottom">
            <lane id="bottom_0">
                <vehicle id="cfm-slow_0" pos="1.14" speed="1.91"/>
                <vehicle id="cfm-slow_1" pos="16.98" speed="1.91"/>
                <vehicle id="cfm-slow_2" pos="32.81" speed="1.91"/>
                <vehicle id="cfm-slow_3" pos="48.64" speed="1.91"/>
            </lane>
            <lane id="bottom_1"/>
        </edge>
        <edge id="left">
            <lane id="left_0">
                <vehicle id="cfm-fast_4" pos="9.48" speed="1.91"/>
                <vehicle id="cfm-fast_5" pos="25.31" speed="1.91"/>
            </lane>
            <lane id="left_1"/>
        </edge>
        <edge id="right">
            <lane id="right_0">
                <vehicle id="cfm-slow_4" pos="14.48" speed="1.91"/>
                <vehicle id="cfm-slow_5" pos="30.31" speed="1.91"/>
                <vehicle id="cfm-fast_0" pos="46.14" speed="1.91"/>
            </lane>
            <lane id="right_1"/>
        </edge>
        <edge id="top">
            <lane id="top_0">
                <vehicle id="cfm-fast_1" pos="11.98" speed="1.91"/>
                <vehicle id="cfm-fast_2" pos="27.81" speed="1.91"/>
                <vehicle id="cfm-fast_3" pos="43.64" speed="1.91"/>
            </lane>
            <lane id="top_1"/>
        </edge>
    </timestep>
    <timestep time="0.15">
        <edge id="bottom">
            <lane id="bottom_0">
                <vehicle id="cfm-slow_0" pos="1.16" speed="2.05"/>
                <vehicle id="cfm-slow_1" pos="17.00" speed="2.05"/>
                <vehicle id="cfm-slow_2" pos="32.83" speed="2.05"/>
                <vehicle id="cfm-slow_3" pos="48.66" speed="2.05"/>
            </lane>
            <lane id="bottom_1"/>
        </edge>
        <edge id="left">
            <lane id="left_0">
                <vehicle id="cfm-fast_4" pos="9.50" speed="2.05"/>
                <vehicle id="cfm-fast_5" pos="25.33" speed="2.05"/>
            </lane>
            <lane id="left_1"/>
        </edge>
        <edge id="right">
            <lane id="right_0">
                <vehicle id="cfm-slow_4" pos="14.50" speed="2.05"/>
                <vehicle id="cfm-slow_5" pos="30.33" speed="2.05"/>
                <vehicle id="cfm-fast_0" pos="46.16" speed="2.05"/>
            </lane>
            <lane id="right_1"/>
        </edge>
        <edge id="top">
            <lane id="top_0">
                <vehicle id="cfm-fast_1" pos="12.00" speed="2.05"/>
                <vehicle id="cfm-fast_2" pos="27.83" speed="2.05"/>
                <vehicle id="cfm-fast_3" pos="43.66" speed="2.05"/>
            </lane>
            <lane id="top_1"/>
        </edge>
    </timestep>
    <timestep time="0.16">
        <edge id="bottom">
            <lane id="bottom_0">
                <vehicle id="cfm-slow_0" pos="1.19" speed="2.18"/>
                <vehicle id="cfm-slow_1" pos="17.02" speed="2.18"/>
                <vehicle id="cfm-slow_2" pos="32.85" speed="2.18"/>
                <vehicle id="cfm-slow_3" pos="48.69" speed="2.18"/>
            </lane>
            <lane id="bottom_1"/>
        </edge>
        <edge id="left">
            <lane id="left_0">
                <vehicle id="cfm-fast_4" pos="9.52" speed="2.18"/>
                <vehicle id="cfm-fast_5" pos="25.35" speed="2.18"/>
            </lane>
            <lane id="left_1"/>
        </edge>
        <edge id="right">
            <lane id="right_0">
                <vehicle id="cfm-slow_4" pos="14.52" speed="2.18"/>
                <vehicle id="cfm-slow_5" pos="30.35" speed="2.18"/>
                <vehicle id="cfm-fast_0" pos="46.19" speed="2.18"/>
            </lane>
            <lane id="right_1"/>
        </edge>
        <edge id="top">
            <lane id="top_0">
                <vehicle id="cfm-fast_1" pos="12.02" speed="2.18"/>
                <vehicle id="cfm-fast_2" pos="27.85" speed="2.18"/>
                <vehicle id="cfm-fast_3" pos="43.69" speed="2.18"/>
            </lane>
            <lane id="top_1"/>
        </edge>
    </timestep>
    <timestep time="0.17">
        <edge id="bottom">
            <lane id="bottom_0">
                <vehicle id="cfm-slow_0" pos="1.21" speed="2.32"/>
                <vehicle id="cfm-slow_1" pos="17.04" speed="2.32"/>
                <vehicle id="cfm-slow_2" pos="32.88" speed="2.32"/>
                <vehicle id="cfm-slow_3" pos="48.71" speed="2.32"/>
            </lane>
            <lane id="bottom_1"/>
        </edge>
        <edge id="left">
            <lane id="left_0">
                <vehicle id="cfm-fast_4" pos="9.54" speed="2.32"/>
                <vehicle id="cfm-fast_5" pos="25.38" speed="2.32"/>
            </lane>
            <lane id="left_1"/>
        </edge>
        <edge id="right">
            <lane id="right_0">
                <vehicle id="cfm-slow_4" pos="14.54" speed="2.32"/>
                <vehicle id="cfm-slow_5" pos="30.38" speed="2.32"/>
                <vehicle id="cfm-fast_0" pos="46.21" speed="2.32"/>
            </lane>
            <lane id="right_1"/>
        </edge>
        <edge id="top">
            <lane id="top_0">
                <vehicle id="cfm-fast_1" pos="12.04" speed="2.32"/>
                <vehicle id="cfm-fast_2" pos="27.88" speed="2.32"/>
                <vehicle id="cfm-fast_3" pos="43.71" speed="2.32"/>
            </lane>
            <lane id="top_1"/>
        </edge>
    </timestep>
    <timestep time="0.18">
        <edge id="bottom">
            <lane id="bottom_0">
                <vehicle id="cfm-slow_0" pos="1.23" speed="2.45"/>
                <vehicle id="cfm-slow_1" pos="17.07" speed="2.45"/>
                <vehicle id="cfm-slow_2" pos="32.90" speed="2.45"/>
                <vehicle id="cfm-slow_3" pos="48.73" speed="2.45"/>
            </lane>
            <lane id="bottom_1"/>
        </edge>
        <edge id="left">
            <lane id="left_0">
                <vehicle id="cfm-fast_4" pos="9.57" speed="2.45"/>
                <vehicle id="cfm-fast_5" pos="25.40" speed="2.45"/>
            </lane>
            <lane id="left_1"/>
        </edge>
        <edge id="right">
            <lane id="right_0">
                <vehicle id="cfm-slow_4" pos="14.57" speed="2.45"/>
                <vehicle id="cfm-slow_5" pos="30.40" speed="2.45"/>
                <vehicle id="cfm-fast_0" pos="46.23" speed="2.45"/>
            </lane>
            <lane id="right_1"/>
        </edge>
        <edge id="top">
            <lane id="top_0">
                <vehicle id="cfm-fast_1" pos="12.07" speed="2.45"/>
                <vehicle id="cfm-fast_2" pos="27.90" speed="2.45"/>
                <vehicle id="cfm-fast_3" pos="43.73" speed="2.45"/>
            </lane>
            <lane id="top_1"/>
        </edge>
    </timestep>
    <timestep time="0.19">
        <edge id="bottom">
            <lane id="bottom_0">
                <vehicle id="cfm-slow_0" pos="1.26" speed="2.59"/>
                <vehicle id="cfm-slow_1" pos="17.09" speed="2.59"/>
                <vehicle id="cfm-slow_2" pos="32.93" speed="2.59"/>
                <vehicle id="cfm-slow_3" pos="48.76" speed="2.59"/>
            </lane>
            <lane id="bottom_1"/>
        </edge>
        <edge id="left">
            <lane id="left_0">
                <vehicle id="cfm-fast_4" pos="9.59" speed="2.59"/>
                <vehicle id="cfm-fast_5" pos="25.43" speed="2.59"/>
            </lane>
            <lane id="left_1"/>
        </edge>
        <edge id="right">
            <lane id="right_0">
                <vehicle id="cfm-slow_4" pos="14.59" speed="2.59"/>
                <vehicle id="cfm-slow_5" pos="30.43" speed="2.59"/>
                <vehicle id="cfm-fast_0" pos="46.26" speed="2.59"/>
            </lane>
            <lane id="right_1"/>
        </edge>
        <edge id="top">
            <lane id="top_0">
                <vehicle id="cfm-fast_1" pos="12.09" speed="2.59"/>
                <vehicle id="cfm-fast_2" pos="27.93" speed="2.59"/>
                <vehicle id="cfm-fast_3" pos="43.76" speed="2.59"/>
            </lane>
            <lane id="top_1"/>
        </edge>
    </timestep>
    <timestep time="0.20">
        <edge id="bottom">
            <lane id="bottom_0">
                <vehicle id="cfm-slow_0" pos="1.29" speed="2.73"/>
                <vehicle id="cfm-slow_1" pos="17.12" speed="2.73"/>
                <vehicle id="cfm-slow_2" pos="32.95" speed="2.73"/>
                <vehicle id="cfm-slow_3" pos="48.79" speed="2.73"/>
            </lane>
            <lane id="bottom_1"/>
        </edge>
        <edge id="left">
            <lane id="left_0">
                <vehicle id="cfm-fast_4" pos="9.62" speed="2.73"/>
                <vehicle id="cfm-fast_5" pos="25.45" speed="2.73"/>
            </lane>
            <lane id="left_1"/>
        </edge>
        <edge id="right">
            <lane id="right_0">
                <vehicle id="cfm-slow_4" pos="14.62" speed="2.73"/>
                <vehicle id="cfm-slow_5" pos="30.45" speed="2.73"/>
                <vehicle id="cfm-fast_0" pos="46.29" speed="2.73"/>
            </lane>
            <lane id="right_1"/>
        </edge>
        <edge id="top">
            <lane id="top_0">
                <vehicle id="cfm-fast_1" pos="12.12" speed="2.73"/>
                <vehicle id="cfm-fast_2" pos="27.95" speed="2.73"/>
                <vehicle id="cfm-fast_3" pos="43.79" speed="2.73"/>
            </lane>