<?xml version="1.0" encoding="UTF-8"?>

<!-- generated on Sun Mar 12 03:17:10 2017 by SUMO Version 0.29.0
<?xml version="1.0" encoding="UTF-8"?>

<configuration xmlns:xsi="http://www.w3.org/2001/XMLSchema-instance" xsi:noNamespaceSchemaLocation="http://sumo.dlr.de/xsd/sumoConfiguration.xsd">

    <input>
        <net-file value="tests/debug/cfg/test-two-lane-two-controller-200m2l.net.xml"/>
        <route-files value="tests/debug/cfg/test-two-lane-two-controller-200m2l.rou.xml"/>
        <additional-files value="tests/debug/cfg/test-two-lane-two-controller-200m2l.add.xml"/>
    </input>

    <output>
        <netstate-dump value="tests/debug/cfg/data/test-two-lane-two-controller-200m2l.netstate.xml"/>
        <emission-output value="tests/debug/cfg/data/test-two-lane-two-controller-200m2l.emission.xml"/>
        <amitran-output value="tests/debug/cfg/data/test-two-lane-two-controller-200m2l.amitran.xml"/>
        <lanechange-output value="tests/debug/cfg/data/test-two-lane-two-controller-200m2l.lanechange.xml"/>
    </output>

    <time>
        <begin value="0"/>
        <end value="1000"/>
        <step-length value="0.01"/>
    </time>

    <traci_server>
        <remote-port value="8873"/>
    </traci_server>

    <gui_only>
        <gui-settings-file value="tests/debug/cfg/test-two-lane-two-controller-200m2l.gui.cfg"/>
    </gui_only>

</configuration>
-->

<emission-export xmlns:xsi="http://www.w3.org/2001/XMLSchema-instance" xsi:noNamespaceSchemaLocation="http://sumo.dlr.de/xsd/emission_file.xsd">
    <timestep time="0.00">
        <vehicle id="cfm-fast_0" eclass="HBEFA3/PC_G_EU4" CO2="2624.72" CO="164.78" HC="0.81" NOx="1.20" PMx="0.07" fuel="1.13" electricity="0.00" noise="55.94" route="routetop" type="cfm-fast" waiting="0.00" lane="top_0" pos="1.00" speed="0.00" angle="272.67" x="61.42" y="132.23"/>
        <vehicle id="cfm-fast_1" eclass="HBEFA3/PC_G_EU4" CO2="2624.72" CO="164.78" HC="0.81" NOx="1.20" PMx="0.07" fuel="1.13" electricity="0.00" noise="55.94" route="routetop" type="cfm-fast" waiting="0.00" lane="top_0" pos="17.67" speed="0.00" angle="242.69" x="27.49" y="121.96"/>
        <vehicle id="cfm-fast_2" eclass="HBEFA3/PC_G_EU4" CO2="2624.72" CO="164.78" HC="0.81" NOx="1.20" PMx="0.07" fuel="1.13" electricity="0.00" noise="55.94" route="routetop" type="cfm-fast" waiting="0.00" lane="top_0" pos="34.33" speed="0.00" angle="212.72" x="3.22" y="96.12"/>
        <vehicle id="cfm-fast_3" eclass="HBEFA3/PC_G_EU4" CO2="2624.72" CO="164.78" HC="0.81" NOx="1.20" PMx="0.07" fuel="1.13" electricity="0.00" noise="55.94" route="routeleft" type="cfm-fast" waiting="0.00" lane="left_0" pos="1.00" speed="0.00" angle="182.67" x="-4.90" y="61.42"/>
        <vehicle id="cfm-fast_4" eclass="HBEFA3/PC_G_EU4" CO2="2624.72" CO="164.78" HC="0.81" NOx="1.20" PMx="0.07" fuel="1.13" electricity="0.00" noise="55.94" route="routeleft" type="cfm-fast" waiting="0.00" lane="left_0" pos="17.67" speed="0.00" angle="152.65" x="5.37" y="27.49"/>
        <vehicle id="cfm-fast_5" eclass="HBEFA3/PC_G_EU4" CO2="2624.72" CO="164.78" HC="0.81" NOx="1.20" PMx="0.07" fuel="1.13" electricity="0.00" noise="55.94" route="routeleft" type="cfm-fast" waiting="0.00" lane="left_0" pos="34.33" speed="0.00" angle="122.73" x="31.21" y="3.22"/>
        <vehicle id="cfm-slow_0" eclass="HBEFA3/PC_G_EU4" CO2="2624.72" CO="164.78" HC="0.81" NOx="1.20" PMx="0.07" fuel="1.13" electricity="0.00" noise="55.94" route="routebottom" type="cfm-slow" waiting="0.00" lane="bottom_0" pos="1.00" speed="0.00" angle="92.66" x="65.91" y="-4.90"/>
        <vehicle id="cfm-slow_1" eclass="HBEFA3/PC_G_EU4" CO2="2624.72" CO="164.78" HC="0.81" NOx="1.20" PMx="0.07" fuel="1.13" electricity="0.00" noise="55.94" route="routebottom" type="cfm-slow" waiting="0.00" lane="bottom_0" pos="17.67" speed="0.00" angle="62.65" x="99.84" y="5.37"/>
        <vehicle id="cfm-slow_2" eclass="HBEFA3/PC_G_EU4" CO2="2624.72" CO="164.78" HC="0.81" NOx="1.20" PMx="0.07" fuel="1.13" electricity="0.00" noise="55.94" route="routebottom" type="cfm-slow" waiting="0.00" lane="bottom_0" pos="34.33" speed="0.00" angle="32.72" x="124.10" y="31.22"/>
        <vehicle id="cfm-slow_3" eclass="HBEFA3/PC_G_EU4" CO2="2624.72" CO="164.78" HC="0.81" NOx="1.20" PMx="0.07" fuel="1.13" electricity="0.00" noise="55.94" route="routeright" type="cfm-slow" waiting="0.00" lane="right_0" pos="1.00" speed="0.00" angle="2.66" x="132.23" y="65.91"/>
        <vehicle id="cfm-slow_4" eclass="HBEFA3/PC_G_EU4" CO2="2624.72" CO="164.78" HC="0.81" NOx="1.20" PMx="0.07" fuel="1.13" electricity="0.00" noise="55.94" route="routeright" type="cfm-slow" waiting="0.00" lane="right_0" pos="17.67" speed="0.00" angle="332.69" x="121.96" y="99.84"/>
        <vehicle id="cfm-slow_5" eclass="HBEFA3/PC_G_EU4" CO2="2624.72" CO="164.78" HC="0.81" NOx="1.20" PMx="0.07" fuel="1.13" electricity="0.00" noise="55.94" route="routeright" type="cfm-slow" waiting="0.00" lane="right_0" pos="34.33" speed="0.00" angle="302.72" x="96.11" y="124.10"/>
    </timestep>
    <timestep time="0.01">
        <vehicle id="cfm-fast_0" eclass="HBEFA3/PC_G_EU4" CO2="3463.10" CO="178.84" HC="0.90" NOx="1.60" PMx="0.09" fuel="1.49" electricity="0.00" noise="136.01" route="routetop" type="cfm-fast" waiting="0.00" lane="top_0" pos="1.00" speed="0.18" angle="272.66" x="61.41" y="132.23"/>
        <vehicle id="cfm-fast_1" eclass="HBEFA3/PC_G_EU4" CO2="3463.10" CO="178.84" HC="0.90" NOx="1.60" PMx="0.09" fuel="1.49" electricity="0.00" noise="136.01" route="routetop" type="cfm-fast" waiting="0.00" lane="top_0" pos="17.67" speed="0.18" angle="242.69" x="27.48" y="121.96"/>
        <vehicle id="cfm-fast_2" eclass="HBEFA3/PC_G_EU4" CO2="3463.10" CO="178.84" HC="0.90" NOx="1.60" PMx="0.09" fuel="1.49" electricity="0.00" noise="136.01" route="routetop" type="cfm-fast" waiting="0.00" lane="top_0" pos="34.34" speed="0.18" angle="212.72" x="3.22" y="96.11"/>
        <vehicle id="cfm-fast_3" eclass="HBEFA3/PC_G_EU4" CO2="3463.10" CO="178.84" HC="0.90" NOx="1.60" PMx="0.09" fuel="1.49" electricity="0.00" noise="136.01" route="routeleft" type="cfm-fast" waiting="0.00" lane="left_0" pos="1.00" speed="0.18" angle="182.66" x="-4.90" y="61.41"/>
        <vehicle id="cfm-fast_4" eclass="HBEFA3/PC_G_EU4" CO2="3463.10" CO="178.84" HC="0.90" NOx="1.60" PMx="0.09" fuel="1.49" electricity="0.00" noise="136.01" route="routeleft" type="cfm-fast" waiting="0.00" lane="left_0" pos="17.67" speed="0.18" angle="152.65" x="5.37" y="27.48"/>
        <vehicle id="cfm-fast_5" eclass="HBEFA3/PC_G_EU4" CO2="3463.10" CO="178.84" HC="0.90" NOx="1.60" PMx="0.09" fuel="1.49" electricity="0.00" noise="136.01" route="routeleft" type="cfm-fast" waiting="0.00" lane="left_0" pos="34.34" speed="0.18" angle="122.72" x="31.22" y="3.22"/>
        <vehicle id="cfm-slow_0" eclass="HBEFA3/PC_G_EU4" CO2="3463.10" CO="178.84" HC="0.90" NOx="1.60" PMx="0.09" fuel="1.49" electricity="0.00" noise="136.01" route="routebottom" type="cfm-slow" waiting="0.00" lane="bottom_0" pos="1.00" speed="0.18" angle="92.66" x="65.91" y="-4.90"/>
        <vehicle id="cfm-slow_1" eclass="HBEFA3/PC_G_EU4" CO2="3463.10" CO="178.84" HC="0.90" NOx="1.60" PMx="0.09" fuel="1.49" electricity="0.00" noise="136.01" route="routebottom" type="cfm-slow" waiting="0.00" lane="bottom_0" pos="17.67" speed="0.18" angle="62.64" x="99.84" y="5.37"/>
        <vehicle id="cfm-slow_2" eclass="HBEFA3/PC_G_EU4" CO2="3463.10" CO="178.84" HC="0.90" NOx="1.60" PMx="0.09" fuel="1.49" electricity="0.00" noise="136.01" route="routebottom" type="cfm-slow" waiting="0.00" lane="bottom_0" pos="34.34" speed="0.18" angle="32.72" x="124.11" y="31.22"/>
        <vehicle id="cfm-slow_3" eclass="HBEFA3/PC_G_EU4" CO2="3463.10" CO="178.84" HC="0.90" NOx="1.60" PMx="0.09" fuel="1.49" electricity="0.00" noise="136.01" route="routeright" type="cfm-slow" waiting="0.00" lane="right_0" pos="1.00" speed="0.18" angle="2.65" x="132.23" y="65.92"/>
        <vehicle id="cfm-slow_4" eclass="HBEFA3/PC_G_EU4" CO2="3463.10" CO="178.84" HC="0.90" NOx="1.60" PMx="0.09" fuel="1.49" electricity="0.00" noise="136.01" route="routeright" type="cfm-slow" waiting="0.00" lane="right_0" pos="17.67" speed="0.18" angle="332.68" x="121.96" y="99.84"/>
        <vehicle id="cfm-slow_5" eclass="HBEFA3/PC_G_EU4" CO2="3463.10" CO="178.84" HC="0.90" NOx="1.60" PMx="0.09" fuel="1.49" electricity="0.00" noise="136.01" route="routeright" type="cfm-slow" waiting="0.00" lane="right_0" pos="34.34" speed="0.18" angle="302.71" x="96.11" y="124.11"/>
    </timestep>
    <timestep time="0.02">
        <vehicle id="cfm-fast_0" eclass="HBEFA3/PC_G_EU4" CO2="4301.99" CO="192.94" HC="0.98" NOx="1.99" PMx="0.11" fuel="1.85" electricity="0.00" noise="136.08" route="routetop" type="cfm-fast" waiting="0.00" lane="top_0" pos="1.01" speed="0.36" angle="272.66" x="61.41" y="132.23"/>
        <vehicle id="cfm-fast_1" eclass="HBEFA3/PC_G_EU4" CO2="4301.99" CO="192.94" HC="0.98" NOx="1.99" PMx="0.11" fuel="1.85" electricity="0.00" noise="136.08" route="routetop" type="cfm-fast" waiting="0.00" lane="top_0" pos="17.67" speed="0.36" angle="242.68" x="27.48" y="121.96"/>
        <vehicle id="cfm-fast_2" eclass="HBEFA3/PC_G_EU4" CO2="4301.99" CO="192.94" HC="0.98" NOx="1.99" PMx="0.11" fuel="1.85" electricity="0.00" noise="136.08" route="routetop" type="cfm-fast" waiting="0.00" lane="top_0" pos="34.34" speed="0.36" angle="212.71" x="3.21" y="96.11"/>
        <vehicle id="cfm-fast_3" eclass="HBEFA3/PC_G_EU4" CO2="4301.99" CO="192.94" HC="0.98" NOx="1.99" PMx="0.11" fuel="1.85" electricity="0.00" noise="136.08" route="routeleft" type="cfm-fast" waiting="0.00" lane="left_0" pos="1.01" speed="0.36" angle="182.66" x="-4.90" y="61.41"/>
        <vehicle id="cfm-fast_4" eclass="HBEFA3/PC_G_EU4" CO2="4301.99" CO="192.94" HC="0.98" NOx="1.99" PMx="0.11" fuel="1.85" electricity="0.00" noise="136.08" route="routeleft" type="cfm-fast" waiting="0.00" lane="left_0" pos="17.67" speed="0.36" angle="152.64" x="5.37" y="27.48"/>
        <vehicle id="cfm-fast_5" eclass="HBEFA3/PC_G_EU4" CO2="4301.99" CO="192.94" HC="0.98" NOx="1.99" PMx="0.11" fuel="1.85" electricity="0.00" noise="136.08" route="routeleft" type="cfm-fast" waiting="0.00" lane="left_0" pos="34.34" speed="0.36" angle="122.72" x="31.22" y="3.21"/>
        <vehicle id="cfm-slow_0" eclass="HBEFA3/PC_G_EU4" CO2="4301.99" CO="192.94" HC="0.98" NOx="1.99" PMx="0.11" fuel="1.85" electricity="0.00" noise="136.08" route="routebottom" type="cfm-slow" waiting="0.00" lane="bottom_0" pos="1.01" speed="0.36" angle="92.65" x="65.92" y="-4.90"/>
        <vehicle id="cfm-slow_1" eclass="HBEFA3/PC_G_EU4" CO2="4301.99" CO="192.94" HC="0.98" NOx="1.99" PMx="0.11" fuel="1.85" electricity="0.00" noise="136.08" route="routebottom" type="cfm-slow" waiting="0.00" lane="bottom_0" pos="17.67" speed="0.36" angle="62.64" x="99.85" y="5.38"/>
        <vehicle id="cfm-slow_2" eclass="HBEFA3/PC_G_EU4" CO2="4301.99" CO="192.94" HC="0.98" NOx="1.99" PMx="0.11" fuel="1.85" electricity="0.00" noise="136.08" route="routebottom" type="cfm-slow" waiting="0.00" lane="bottom_0" pos="34.34" speed="0.36" angle="32.71" x="124.11" y="31.23"/>
        <vehicle id="cfm-slow_3" eclass="HBEFA3/PC_G_EU4" CO2="4301.99" CO="192.94" HC="0.98" NOx="1.99" PMx="0.11" fuel="1.85" electricity="0.00" noise="136.08" route="routeright" type="cfm-slow" waiting="0.00" lane="right_0" pos="1.01" speed="0.36" angle="2.65" x="132.23" y="65.92"/>
        <vehicle id="cfm-slow_4" eclass="HBEFA3/PC_G_EU4" CO2="4301.99" CO="192.94" HC="0.98" NOx="1.99" PMx="0.11" fuel="1.85" electricity="0.00" noise="136.08" route="routeright" type="cfm-slow" waiting="0.00" lane="right_0" pos="17.67" speed="0.36" angle="332.68" x="121.95" y="99.85"/>
        <vehicle id="cfm-slow_5" eclass="HBEFA3/PC_G_EU4" CO2="4301.99" CO="192.94" HC="0.98" NOx="1.99" PMx="0.11" fuel="1.85" electricity="0.00" noise="136.08" route="routeright" type="cfm-slow" waiting="0.00" lane="right_0" pos="34.34" speed="0.36" angle="302.71" x="96.10" y="124.11"/>
    </timestep>
    <timestep time="0.03">
        <vehicle id="cfm-fast_0" eclass="HBEFA3/PC_G_EU4" CO2="5141.41" CO="207.07" HC="1.07" NOx="2.38" PMx="0.13" fuel="2.21" electricity="0.00" noise="136.14" route="routetop" type="cfm-fast" waiting="0.00" lane="top_0" pos="1.01" speed="0.55" angle="272.65" x="61.40" y="132.23"/>
        <vehicle id="cfm-fast_1" eclass="HBEFA3/PC_G_EU4" CO2="5141.41" CO="207.07" HC="1.07" NOx="2.38" PMx="0.13" fuel="2.21" electricity="0.00" noise="136.14" route="routetop" type="cfm-fast" waiting="0.00" lane="top_0" pos="17.68" speed="0.55" angle="242.67" x="27.47" y="121.95"/>
        <vehicle id="cfm-fast_2" eclass="HBEFA3/PC_G_EU4" CO2="5141.41" CO="207.07" HC="1.07" NOx="2.38" PMx="0.13" fuel="2.21" electricity="0.00" noise="136.14" route="routetop" type="cfm-fast" waiting="0.00" lane="top_0" pos="34.34" speed="0.55" angle="212.70" x="3.21" y="96.09"/>
        <vehicle id="cfm-fast_3" eclass="HBEFA3/PC_G_EU4" CO2="5141.41" CO="207.07" HC="1.07" NOx="2.38" PMx="0.13" fuel="2.21" electricity="0.00" noise="136.14" route="routeleft" type="cfm-fast" waiting="0.00" lane="left_0" pos="1.01" speed="0.55" angle="182.65" x="-4.90" y="61.40"/>
        <vehicle id="cfm-fast_4" eclass="HBEFA3/PC_G_EU4" CO2="5141.41" CO="207.07" HC="1.07" NOx="2.38" PMx="0.13" fuel="2.21" electricity="0.00" noise="136.14" route="routeleft" type="cfm-fast" waiting="0.00" lane="left_0" pos="17.68" speed="0.55" angle="152.63" x="5.38" y="27.47"/>
        <vehicle id="cfm-fast_5" eclass="HBEFA3/PC_G_EU4" CO2="5141.41" CO="207.07" HC="1.07" NOx="2.38" PMx="0.13" fuel="2.21" electricity="0.00" noise="136.14" route="routeleft" type="cfm-fast" waiting="0.00" lane="left_0" pos="34.34" speed="0.55" angle="122.71" x="31.23" y="3.21"/>
        <vehicle id="cfm-slow_0" eclass="HBEFA3/PC_G_EU4" CO2="5141.41" CO="207.07" HC="1.07" NOx="2.38" PMx="0.13" fuel="2.21" electricity="0.00" noise="136.14" route="routebottom" type="cfm-slow" waiting="0.00" lane="bottom_0" pos="1.01" speed="0.55" angle="92.64" x="65.93" y="-4.90"/>
        <vehicle id="cfm-slow_1" eclass="HBEFA3/PC_G_EU4" CO2="5141.41" CO="207.07" HC="1.07" NOx="2.38" PMx="0.13" fuel="2.21" electricity="0.00" noise="136.14" route="routebottom" type="cfm-slow" waiting="0.00" lane="bottom_0" pos="17.68" speed="0.55" angle="62.63" x="99.86" y="5.38"/>
        <vehicle id="cfm-slow_2" eclass="HBEFA3/PC_G_EU4" CO2="5141.41" CO="207.07" HC="1.07" NOx="2.38" PMx="0.13" fuel="2.21" electricity="0.00" noise="136.14" route="routebottom" type="cfm-slow" waiting="0.00" lane="bottom_0" pos="34.34" speed="0.55" angle="32.70" x="124.12" y="31.24"/>
        <vehicle id="cfm-slow_3" eclass="HBEFA3/PC_G_EU4" CO2="5141.41" CO="207.07" HC="1.07" NOx="2.38" PMx="0.13" fuel="2.21" electricity="0.00" noise="136.14" route="routeright" type="cfm-slow" waiting="0.00" lane="right_0" pos="1.01" speed="0.55" angle="2.64" x="132.23" y="65.93"/>
        <vehicle id="cfm-slow_4" eclass="HBEFA3/PC_G_EU4" CO2="5141.41" CO="207.07" HC="1.07" NOx="2.38" PMx="0.13" fuel="2.21" electricity="0.00" noise="136.14" route="routeright" type="cfm-slow" waiting="0.00" lane="right_0" pos="17.68" speed="0.55" angle="332.67" x="121.95" y="99.86"/>
        <vehicle id="cfm-slow_5" eclass="HBEFA3/PC_G_EU4" CO2="5141.41" CO="207.07" HC="1.07" NOx="2.38" PMx="0.13" fuel="2.21" electricity="0.00" noise="136.14" route="routeright" type="cfm-slow" waiting="0.00" lane="right_0" pos="34.34" speed="0.55" angle="302.70" x="96.09" y="124.12"/>
    </timestep>
    <timestep time="0.04">
        <vehicle id="cfm-fast_0" eclass="HBEFA3/PC_G_EU4" CO2="5981.34" CO="221.25" HC="1.15" NOx="2.77" PMx="0.15" fuel="2.57" electricity="0.00" noise="136.21" route="routetop" type="cfm-fast" waiting="0.00" lane="top_0" pos="1.02" speed="0.73" angle="272.63" x="61.38" y="132.23"/>
        <vehicle id="cfm-fast_1" eclass="HBEFA3/PC_G_EU4" CO2="5981.34" CO="221.25" HC="1.15" NOx="2.77" PMx="0.15" fuel="2.57" electricity="0.00" noise="136.21" route="routetop" type="cfm-fast" waiting="0.00" lane="top_0" pos="17.68" speed="0.73" angle="242.66" x="27.45" y="121.94"/>
        <vehicle id="cfm-fast_2" eclass="HBEFA3/PC_G_EU4" CO2="5981.34" CO="221.25" HC="1.15" NOx="2.77" PMx="0.15" fuel="2.57" electricity="0.00" noise="136.21" route="routetop" type="cfm-fast" waiting="0.00" lane="top_0" pos="34.35" speed="0.73" angle="212.69" x="3.20" y="96.08"/>
        <vehicle id="cfm-fast_3" eclass="HBEFA3/PC_G_EU4" CO2="5981.34" CO="221.25" HC="1.15" NOx="2.77" PMx="0.15" fuel="2.57" electricity="0.00" noise="136.21" route="routeleft" type="cfm-fast" waiting="0.00" lane="left_0" pos="1.02" speed="0.73" angle="182.63" x="-4.90" y="61.38"/>
        <vehicle id="cfm-fast_4" eclass="HBEFA3/PC_G_EU4" CO2="5981.34" CO="221.25" HC="1.15" NOx="2.77" PMx="0.15" fuel="2.57" electricity="0.00" noise="136.21" route="routeleft" type="cfm-fast" waiting="0.00" lane="left_0" pos="17.68" speed="0.73" angle="152.62" x="5.39" y="27.45"/>
        <vehicle id="cfm-fast_5" eclass="HBEFA3/PC_G_EU4" CO2="5981.34" CO="221.25" HC="1.15" NOx="2.77" PMx="0.15" fuel="2.57" electricity="0.00" noise="136.21" route="routeleft" type="cfm-fast" waiting="0.00" lane="left_0" pos="34.35" speed="0.73" angle="122.69" x="31.25" y="3.20"/>
        <vehicle id="cfm-slow_0" eclass="HBEFA3/PC_G_EU4" CO2="5981.34" CO="221.25" HC="1.15" NOx="2.77" PMx="0.15" fuel="2.57" electricity="0.00" noise="136.21" route="routebottom" type="cfm-slow" waiting="0.00" lane="bottom_0" pos="1.02" speed="0.73" angle="92.63" x="65.95" y="-4.90"/>
        <vehicle id="cfm-slow_1" eclass="HBEFA3/PC_G_EU4" CO2="5981.34" CO="221.25" HC="1.15" NOx="2.77" PMx="0.15" fuel="2.57" electricity="0.00" noise="136.21" route="routebottom" type="cfm-slow" waiting="0.00" lane="bottom_0" pos="17.68" speed="0.73" angle="62.61" x="99.87" y="5.39"/>
        <vehicle id="cfm-slow_2" eclass="HBEFA3/PC_G_EU4" CO2="5981.34" CO="221.25" HC="1.15" NOx="2.77" PMx="0.15" fuel="2.57" electricity="0.00" noise="136.21" route="routebottom" type="cfm-slow" waiting="0.00" lane="bottom_0" pos="34.35" speed="0.73" angle="32.69" x="124.12" y="31.25"/>
        <vehicle id="cfm-slow_3" eclass="HBEFA3/PC_G_EU4" CO2="5981.34" CO="221.25" HC="1.15" NOx="2.77" PMx="0.15" fuel="2.57" electricity="0.00" noise="136.21" route="routeright" type="cfm-slow" waiting="0.00" lane="right_0" pos="1.02" speed="0.73" angle="2.63" x="132.23" y="65.95"/>
        <vehicle id="cfm-slow_4" eclass="HBEFA3/PC_G_EU4" CO2="5981.34" CO="221.25" HC="1.15" NOx="2.77" PMx="0.15" fuel="2.57" electricity="0.00" noise="136.21" route="routeright" type="cfm-slow" waiting="0.00" lane="right_0" pos="17.68" speed="0.73" angle="332.65" x="121.94" y="99.87"/>
        <vehicle id="cfm-slow_5" eclass="HBEFA3/PC_G_EU4" CO2="5981.34" CO="221.25" HC="1.15" NOx="2.77" PMx="0.15" fuel="2.57" electricity="0.00" noise="136.21" route="routeright" type="cfm-slow" waiting="0.00" lane="right_0" pos="34.35" speed="0.73" angle="302.68" x="96.08" y="124.12"/>
    </timestep>
    <timestep time="0.05">
        <vehicle id="cfm-fast_0" eclass="HBEFA3/PC_G_EU4" CO2="6821.80" CO="235.46" HC="1.24" NOx="3.16" PMx="0.17" fuel="2.93" electricity="0.00" noise="136.28" route="routetop" type="cfm-fast" waiting="0.00" lane="top_0" pos="1.03" speed="0.91" angle="272.62" x="61.36" y="132.23"/>
        <vehicle id="cfm-fast_1" eclass="HBEFA3/PC_G_EU4" CO2="6821.80" CO="235.46" HC="1.24" NOx="3.16" PMx="0.17" fuel="2.93" electricity="0.00" noise="136.28" route="routetop" type="cfm-fast" waiting="0.00" lane="top_0" pos="17.69" speed="0.91" angle="242.64" x="27.44" y="121.93"/>
        <vehicle id="cfm-fast_2" eclass="HBEFA3/PC_G_EU4" CO2="6821.80" CO="235.46" HC="1.24" NOx="3.16" PMx="0.17" fuel="2.93" electricity="0.00" noise="136.28" route="routetop" type="cfm-fast" waiting="0.00" lane="top_0" pos="34.36" speed="0.91" angle="212.67" x="3.19" y="96.06"/>
        <vehicle id="cfm-fast_3" eclass="HBEFA3/PC_G_EU4" CO2="6821.80" CO="235.46" HC="1.24" NOx="3.16" PMx="0.17" fuel="2.93" electricity="0.00" noise="136.28" route="routeleft" type="cfm-fast" waiting="0.00" lane="left_0" pos="1.03" speed="0.91" angle="182.62" x="-4.90" y="61.36"/>
        <vehicle id="cfm-fast_4" eclass="HBEFA3/PC_G_EU4" CO2="6821.80" CO="235.46" HC="1.24" NOx="3.16" PMx="0.17" fuel="2.93" electricity="0.00" noise="136.28" route="routeleft" type="cfm-fast" waiting="0.00" lane="left_0" pos="17.69" speed="0.91" angle="152.60" x="5.40" y="27.44"/>
        <vehicle id="cfm-fast_5" eclass="HBEFA3/PC_G_EU4" CO2="6821.80" CO="235.46" HC="1.24" NOx="3.16" PMx="0.17" fuel="2.93" electricity="0.00" noise="136.28" route="routeleft" type="cfm-fast" waiting="0.00" lane="left_0" pos="34.36" speed="0.91" angle="122.68" x="31.26" y="3.19"/>
        <vehicle id="cfm-slow_0" eclass="HBEFA3/PC_G_EU4" CO2="6821.80" CO="235.46" HC="1.24" NOx="3.16" PMx="0.17" fuel="2.93" electricity="0.00" noise="136.28" route="routebottom" type="cfm-slow" waiting="0.00" lane="bottom_0" pos="1.03" speed="0.91" angle="92.61" x="65.97" y="-4.90"/>
        <vehicle id="cfm-slow_1" eclass="HBEFA3/PC_G_EU4" CO2="6821.80" CO="235.46" HC="1.24" NOx="3.16" PMx="0.17" fuel="2.93" electricity="0.00" noise="136.28" route="routebottom" type="cfm-slow" waiting="0.00" lane="bottom_0" pos="17.69" speed="0.91" angle="62.60" x="99.89" y="5.40"/>
        <vehicle id="cfm-slow_2" eclass="HBEFA3/PC_G_EU4" CO2="6821.80" CO="235.46" HC="1.24" NOx="3.16" PMx="0.17" fuel="2.93" electricity="0.00" noise="136.28" route="routebottom" type="cfm-slow" waiting="0.00" lane="bottom_0" pos="34.36" speed="0.91" angle="32.67" x="124.13" y="31.27"/>
        <vehicle id="cfm-slow_3" eclass="HBEFA3/PC_G_EU4" CO2="6821.80" CO="235.46" HC="1.24" NOx="3.16" PMx="0.17" fuel="2.93" electricity="0.00" noise="136.28" route="routeright" type="cfm-slow" waiting="0.00" lane="right_0" pos="1.03" speed="0.91" angle="2.61" x="132.23" y="65.97"/>
        <vehicle id="cfm-slow_4" eclass="HBEFA3/PC_G_EU4" CO2="6821.80" CO="235.46" HC="1.24" NOx="3.16" PMx="0.17" fuel="2.93" electricity="0.00" noise="136.28" route="routeright" type="cfm-slow" waiting="0.00" lane="right_0" pos="17.69" speed="0.91" angle="332.64" x="121.93" y="99.89"/>
        <vehicle id="cfm-slow_5" eclass="HBEFA3/PC_G_EU4" CO2="6821.80" CO="235.46" HC="1.24" NOx="3.16" PMx="0.17" fuel="2.93" electricity="0.00" noise="136.28" route="routeright" type="cfm-slow" waiting="0.00" lane="right_0" pos="34.36" speed="0.91" angle="302.67" x="96.06" y="124.13"/>
    </timestep>
    <timestep time="0.06">
        <vehicle id="cfm-fast_0" eclass="HBEFA3/PC_G_EU4" CO2="7662.77" CO="249.72" HC="1.32" NOx="3.55" PMx="0.19" fuel="3.29" electricity="0.00" noise="136.35" route="routetop" type="cfm-fast" waiting="0.00" lane="top_0" pos="1.04" speed="1.09" angle="272.60" x="61.34" y="132.23"/>
        <vehicle id="cfm-fast_1" eclass="HBEFA3/PC_G_EU4" CO2="7662.77" CO="249.72" HC="1.32" NOx="3.55" PMx="0.19" fuel="3.29" electricity="0.00" noise="136.35" route="routetop" type="cfm-fast" waiting="0.00" lane="top_0" pos="17.70" speed="1.09" angle="242.62" x="27.42" y="121.92"/>
        <vehicle id="cfm-fast_2" eclass="HBEFA3/PC_G_EU4" CO2="7662.77" CO="249.72" HC="1.32" NOx="3.55" PMx="0.19" fuel="3.29" electricity="0.00" noise="136.35" route="routetop" type="cfm-fast" waiting="0.00" lane="top_0" pos="34.37" speed="1.09" angle="212.65" x="3.18" y="96.04"/>
        <vehicle id="cfm-fast_3" eclass="HBEFA3/PC_G_EU4" CO2="7662.77" CO="249.72" HC="1.32" NOx="3.55" PMx="0.19" fuel="3.29" electricity="0.00" noise="136.35" route="routeleft" type="cfm-fast" waiting="0.00" lane="left_0" pos="1.04" speed="1.09" angle="182.60" x="-4.90" y="61.34"/>
        <vehicle id="cfm-fast_4" eclass="HBEFA3/PC_G_EU4" CO2="7662.77" CO="249.72" HC="1.32" NOx="3.55" PMx="0.19" fuel="3.29" electricity="0.00" noise="136.35" route="routeleft" type="cfm-fast" waiting="0.00" lane="left_0" pos="17.70" speed="1.09" angle="152.58" x="5.41" y="27.42"/>
        <vehicle id="cfm-fast_5" eclass="HBEFA3/PC_G_EU4" CO2="7662.77" CO="249.72" HC="1.32" NOx="3.55" PMx="0.19" fuel="3.29" electricity="0.00" noise="136.35" route="routeleft" type="cfm-fast" waiting="0.00" lane="left_0" pos="34.37" speed="1.09" angle="122.66" x="31.29" y="3.18"/>
        <vehicle id="cfm-slow_0" eclass="HBEFA3/PC_G_EU4" CO2="7662.77" CO="249.72" HC="1.32" NOx="3.55" PMx="0.19" fuel="3.29" electricity="0.00" noise="136.35" route="routebottom" type="cfm-slow" waiting="0.00" lane="bottom_0" pos="1.04" speed="1.09" angle="92.59" x="65.99" y="-4.90"/>
        <vehicle id="cfm-slow_1" eclass="HBEFA3/PC_G_EU4" CO2="7662.77" CO="249.72" HC="1.32" NOx="3.55" PMx="0.19" fuel="3.29" electricity="0.00" noise="136.35" route="routebottom" type="cfm-slow" waiting="0.00" lane="bottom_0" pos="17.70" speed="1.09" angle="62.58" x="99.91" y="5.41"/>
        <vehicle id="cfm-slow_2" eclass="HBEFA3/PC_G_EU4" CO2="7662.77" CO="249.72" HC="1.32" NOx="3.55" PMx="0.19" fuel="3.29" electricity="0.00" noise="136.35" route="routebottom" type="cfm-slow" waiting="0.00" lane="bottom_0" pos="34.37" speed="1.09" angle="32.65" x="124.14" y="31.29"/>
        <vehicle id="cfm-slow_3" eclass="HBEFA3/PC_G_EU4" CO2="7662.77" CO="249.72" HC="1.32" NOx="3.55" PMx="0.19" fuel="3.29" electricity="0.00" noise="136.35" route="routeright" type="cfm-slow" waiting="0.00" lane="right_0" pos="1.04" speed="1.09" angle="2.59" x="132.23" y="65.99"/>
        <vehicle id="cfm-slow_4" eclass="HBEFA3/PC_G_EU4" CO2="7662.77" CO="249.72" HC="1.32" NOx="3.55" PMx="0.19" fuel="3.29" electricity="0.00" noise="136.35" route="routeright" type="cfm-slow" waiting="0.00" lane="right_0" pos="17.70" speed="1.09" angle="332.62" x="121.92" y="99.91"/>
        <vehicle id="cfm-slow_5" eclass="HBEFA3/PC_G_EU4" CO2="7662.77" CO="249.72" HC="1.32" NOx="3.55" PMx="0.19" fuel="3.29" electricity="0.00" noise="136.35" route="routeright" type="cfm-slow" waiting="0.00" lane="right_0" pos="34.37" speed="1.09" angle="302.65" x="96.04" y="124.14"/>
    </timestep>
    <timestep time="0.07">
        <vehicle id="cfm-fast_0" eclass="HBEFA3/PC_G_EU4" CO2="8504.26" CO="264.01" HC="1.41" NOx="3.94" PMx="0.21" fuel="3.66" electricity="0.00" noise="136.42" route="routetop" type="cfm-fast" waiting="0.00" lane="top_0" pos="1.05" speed="1.27" angle="272.57" x="61.31" y="132.23"/>
        <vehicle id="cfm-fast_1" eclass="HBEFA3/PC_G_EU4" CO2="8504.26" CO="264.01" HC="1.41" NOx="3.94" PMx="0.21" fuel="3.66" electricity="0.00" noise="136.42" route="routetop" type="cfm-fast" waiting="0.00" lane="top_0" pos="17.72" speed="1.27" angle="242.60" x="27.39" y="121.91"/>
        <vehicle id="cfm-fast_2" eclass="HBEFA3/PC_G_EU4" CO2="8504.26" CO="264.01" HC="1.41" NOx="3.94" PMx="0.21" fuel="3.66" electricity="0.00" noise="136.42" route="routetop" type="cfm-fast" waiting="0.00" lane="top_0" pos="34.38" speed="1.27" angle="212.63" x="3.16" y="96.02"/>
        <vehicle id="cfm-fast_3" eclass="HBEFA3/PC_G_EU4" CO2="8504.26" CO="264.01" HC="1.41" NOx="3.94" PMx="0.21" fuel="3.66" electricity="0.00" noise="136.42" route="routeleft" type="cfm-fast" waiting="0.00" lane="left_0" pos="1.05" speed="1.27" angle="182.58" x="-4.90" y="61.31"/>
        <vehicle id="cfm-fast_4" eclass="HBEFA3/PC_G_EU4" CO2="8504.26" CO="264.01" HC="1.41" NOx="3.94" PMx="0.21" fuel="3.66" electricity="0.00" noise="136.42" route="routeleft" type="cfm-fast" waiting="0.00" lane="left_0" pos="17.72" speed="1.27" angle="152.56" x="5.42" y="27.39"/>
        <vehicle id="cfm-fast_5" eclass="HBEFA3/PC_G_EU4" CO2="8504.26" CO="264.01" HC="1.41" NOx="3.94" PMx="0.21" fuel="3.66" electricity="0.00" noise="136.42" route="routeleft" type="cfm-fast" waiting="0.00" lane="left_0" pos="34.38" speed="1.27" angle="122.63" x="31.31" y="3.16"/>
        <vehicle id="cfm-slow_0" eclass="HBEFA3/PC_G_EU4" CO2="8504.26" CO="264.01" HC="1.41" NOx="3.94" PMx="0.21" fuel="3.66" electricity="0.00" noise="136.42" route="routebottom" type="cfm-slow" waiting="0.00" lane="bottom_0" pos="1.05" speed="1.27" angle="92.57" x="66.02" y="-4.90"/>
        <vehicle id="cfm-slow_1" eclass="HBEFA3/PC_G_EU4" CO2="8504.26" CO="264.01" HC="1.41" NOx="3.94" PMx="0.21" fuel="3.66" electricity="0.00" noise="136.42" route="routebottom" type="cfm-slow" waiting="0.00" lane="bottom_0" pos="17.72" speed="1.27" angle="62.55" x="99.93" y="5.43"/>
        <vehicle id="cfm-slow_2" eclass="HBEFA3/PC_G_EU4" CO2="8504.26" CO="264.01" HC="1.41" NOx="3.94" PMx="0.21" fuel="3.66" electricity="0.00" noise="136.42" route="routebottom" type="cfm-slow" waiting="0.00" lane="bottom_0" pos="34.38" speed="1.27" angle="32.63" x="124.16" y="31.31"/>
        <vehicle id="cfm-slow_3" eclass="HBEFA3/PC_G_EU4" CO2="8504.26" CO="264.01" HC="1.41" NOx="3.94" PMx="0.21" fuel="3.66" electricity="0.00" noise="136.42" route="routeright" type="cfm-slow" waiting="0.00" lane="right_0" pos="1.05" speed="1.27" angle="2.57" x="132.23" y="66.02"/>
        <vehicle id="cfm-slow_4" eclass="HBEFA3/PC_G_EU4" CO2="8504.26" CO="264.01" HC="1.41" NOx="3.94" PMx="0.21" fuel="3.66" electricity="0.00" noise="136.42" route="routeright" type="cfm-slow" waiting="0.00" lane="right_0" pos="17.72" speed="1.27" angle="332.59" x="121.90" y="99.93"/>
        <vehicle id="cfm-slow_5" eclass="HBEFA3/PC_G_EU4" CO2="8504.26" CO="264.01" HC="1.41" NOx="3.94" PMx="0.21" fuel="3.66" electricity="0.00" noise="136.42" route="routeright" type="cfm-slow" waiting="0.00" lane="right_0" pos="34.38" speed="1.27" angle="302.62" x="96.02" y="124.16"/>
    </timestep>
    <timestep time="0.08">
        <vehicle id="cfm-fast_0" eclass="HBEFA3/PC_G_EU4" CO2="9346.27" CO="278.34" HC="1.50" NOx="4.34" PMx="0.23" fuel="4.02" electricity="0.00" noise="136.49" route="routetop" type="cfm-fast" waiting="0.00" lane="top_0" pos="1.07" speed="1.45" angle="272.55" x="61.28" y="132.23"/>