<?xml version="1.0" encoding="UTF-8"?>

<!-- generated on Sun Mar 12 03:17:06 2017 by SUMO Version 0.29.0
<?xml version="1.0" encoding="UTF-8"?>

<configuration xmlns:xsi="http://www.w3.org/2001/XMLSchema-instance" xsi:noNamespaceSchemaLocation="http://sumo.dlr.de/xsd/sumoConfiguration.xsd">

    <input>
        <net-file value="tests/debug/cfg/test-single-lane-one-controller-200m1l.net.xml"/>
        <route-files value="tests/debug/cfg/test-single-lane-one-controller-200m1l.rou.xml"/>
        <additional-files value="tests/debug/cfg/test-single-lane-one-controller-200m1l.add.xml"/>
    </input>

    <output>
        <netstate-dump value="tests/debug/cfg/data/test-single-lane-one-controller-200m1l.netstate.xml"/>
        <emission-output value="tests/debug/cfg/data/test-single-lane-one-controller-200m1l.emission.xml"/>
        <amitran-output value="tests/debug/cfg/data/test-single-lane-one-controller-200m1l.amitran.xml"/>
        <lanechange-output value="tests/debug/cfg/data/test-single-lane-one-controller-200m1l.lanechange.xml"/>
    </output>

    <time>
        <begin value="0"/>
        <end value="1000"/>
        <step-length value="0.01"/>
    </time>

    <traci_server>
        <remote-port value="8873"/>
    </traci_server>

    <gui_only>
        <gui-settings-file value="tests/debug/cfg/test-single-lane-one-controller-200m1l.gui.cfg"/>
    </gui_only>

</configuration>
-->

<emission-export xmlns:xsi="http://www.w3.org/2001/XMLSchema-instance" xsi:noNamespaceSchemaLocation="http://sumo.dlr.de/xsd/emission_file.xsd">
    <timestep time="0.00">
        <vehicle id="cfm_slow_0" eclass="HBEFA3/PC_G_EU4" CO2="2624.72" CO="164.78" HC="0.81" NOx="1.20" PMx="0.07" fuel="1.13" electricity="0.00" noise="55.94" route="routebottom" type="cfm_slow" waiting="0.00" lane="bottom_0" pos="1.00" speed="0.00" angle="92.66" x="65.74" y="-1.61"/>
        <vehicle id="cfm_slow_1" eclass="HBEFA3/PC_G_EU4" CO2="2624.72" CO="164.78" HC="0.81" NOx="1.20" PMx="0.07" fuel="1.13" electricity="0.00" noise="55.94" route="routebottom" type="cfm_slow" waiting="0.00" lane="bottom_0" pos="41.00" speed="0.00" angle="20.74" x="126.38" y="45.42"/>
        <vehicle id="cfm_slow_2" eclass="HBEFA3/PC_G_EU4" CO2="2624.72" CO="164.78" HC="0.81" NOx="1.20" PMx="0.07" fuel="1.13" electricity="0.00" noise="55.94" route="routeright" type="cfm_slow" waiting="0.00" lane="right_0" pos="31.00" speed="0.00" angle="308.70" x="100.37" y="117.67"/>
        <vehicle id="cfm_slow_3" eclass="HBEFA3/PC_G_EU4" CO2="2624.72" CO="164.78" HC="0.81" NOx="1.20" PMx="0.07" fuel="1.13" electricity="0.00" noise="55.94" route="routetop" type="cfm_slow" waiting="0.00" lane="top_0" pos="21.00" speed="0.00" angle="236.67" x="23.64" y="115.25"/>
        <vehicle id="cfm_slow_4" eclass="HBEFA3/PC_G_EU4" CO2="2624.72" CO="164.78" HC="0.81" NOx="1.20" PMx="0.07" fuel="1.13" electricity="0.00" noise="55.94" route="routeleft" type="cfm_slow" waiting="0.00" lane="left_0" pos="11.00" speed="0.00" angle="164.64" x="2.23" y="41.53"/>
    </timestep>
    <timestep time="0.01">
        <vehicle id="cfm_slow_0" eclass="HBEFA3/PC_G_EU4" CO2="3463.10" CO="178.84" HC="0.90" NOx="1.60" PMx="0.09" fuel="1.49" electricity="0.00" noise="136.01" route="routebottom" type="cfm_slow" waiting="0.00" lane="bottom_0" pos="1.00" speed="0.18" angle="92.66" x="65.74" y="-1.61"/>
        <vehicle id="cfm_slow_1" eclass="HBEFA3/PC_G_EU4" CO2="3463.10" CO="178.84" HC="0.90" NOx="1.60" PMx="0.09" fuel="1.49" electricity="0.00" noise="136.01" route="routebottom" type="cfm_slow" waiting="0.00" lane="bottom_0" pos="41.00" speed="0.18" angle="20.74" x="126.38" y="45.42"/>
        <vehicle id="cfm_slow_2" eclass="HBEFA3/PC_G_EU4" CO2="3463.10" CO="178.84" HC="0.90" NOx="1.60" PMx="0.09" fuel="1.49" electricity="0.00" noise="136.01" route="routeright" type="cfm_slow" waiting="0.00" lane="right_0" pos="31.00" speed="0.18" angle="308.70" x="100.37" y="117.67"/>
        <vehicle id="cfm_slow_3" eclass="HBEFA3/PC_G_EU4" CO2="3463.10" CO="178.84" HC="0.90" NOx="1.60" PMx="0.09" fuel="1.49" electricity="0.00" noise="136.01" route="routetop" type="cfm_slow" waiting="0.00" lane="top_0" pos="21.00" speed="0.18" angle="236.67" x="23.63" y="115.25"/>
        <vehicle id="cfm_slow_4" eclass="HBEFA3/PC_G_EU4" CO2="3463.10" CO="178.84" HC="0.90" NOx="1.60" PMx="0.09" fuel="1.49" electricity="0.00" noise="136.01" route="routeleft" type="cfm_slow" waiting="0.00" lane="left_0" pos="11.00" speed="0.18" angle="164.64" x="2.23" y="41.52"/>
    </timestep>
    <timestep time="0.02">
        <vehicle id="cfm_slow_0" eclass="HBEFA3/PC_G_EU4" CO2="4301.99" CO="192.94" HC="0.98" NOx="1.99" PMx="0.11" fuel="1.85" electricity="0.00" noise="136.08" route="routebottom" type="cfm_slow" waiting="0.00" lane="bottom_0" pos="1.01" speed="0.36" angle="92.66" x="65.75" y="-1.61"/>
        <vehicle id="cfm_slow_1" eclass="HBEFA3/PC_G_EU4" CO2="4301.99" CO="192.94" HC="0.98" NOx="1.99" PMx="0.11" fuel="1.85" electricity="0.00" noise="136.08" route="routebottom" type="cfm_slow" waiting="0.00" lane="bottom_0" pos="41.01" speed="0.36" angle="20.73" x="126.38" y="45.43"/>
        <vehicle id="cfm_slow_2" eclass="HBEFA3/PC_G_EU4" CO2="4301.99" CO="192.94" HC="0.98" NOx="1.99" PMx="0.11" fuel="1.85" electricity="0.00" noise="136.08" route="routeright" type="cfm_slow" waiting="0.00" lane="right_0" pos="31.01" speed="0.36" angle="308.69" x="100.36" y="117.67"/>
        <vehicle id="cfm_slow_3" eclass="HBEFA3/PC_G_EU4" CO2="4301.99" CO="192.94" HC="0.98" NOx="1.99" PMx="0.11" fuel="1.85" electricity="0.00" noise="136.08" route="routetop" type="cfm_slow" waiting="0.00" lane="top_0" pos="21.01" speed="0.36" angle="236.66" x="23.63" y="115.24"/>
        <vehicle id="cfm_slow_4" eclass="HBEFA3/PC_G_EU4" CO2="4301.99" CO="192.94" HC="0.98" NOx="1.99" PMx="0.11" fuel="1.85" electricity="0.00" noise="136.08" route="routeleft" type="cfm_slow" waiting="0.00" lane="left_0" pos="11.01" speed="0.36" angle="164.63" x="2.24" y="41.52"/>
    </timestep>
    <timestep time="0.03">
        <vehicle id="cfm_slow_0" eclass="HBEFA3/PC_G_EU4" CO2="5141.41" CO="207.07" HC="1.07" NOx="2.38" PMx="0.13" fuel="2.21" electricity="0.00" noise="136.14" route="routebottom" type="cfm_slow" waiting="0.00" lane="bottom_0" pos="1.01" speed="0.55" angle="92.65" x="65.76" y="-1.61"/>
        <vehicle id="cfm_slow_1" eclass="HBEFA3/PC_G_EU4" CO2="5141.41" CO="207.07" HC="1.07" NOx="2.38" PMx="0.13" fuel="2.21" electricity="0.00" noise="136.14" route="routebottom" type="cfm_slow" waiting="0.00" lane="bottom_0" pos="41.01" speed="0.55" angle="20.72" x="126.38" y="45.44"/>
        <vehicle id="cfm_slow_2" eclass="HBEFA3/PC_G_EU4" CO2="5141.41" CO="207.07" HC="1.07" NOx="2.38" PMx="0.13" fuel="2.21" electricity="0.00" noise="136.14" route="routeright" type="cfm_slow" waiting="0.00" lane="right_0" pos="31.01" speed="0.55" angle="308.68" x="100.35" y="117.68"/>
        <vehicle id="cfm_slow_3" eclass="HBEFA3/PC_G_EU4" CO2="5141.41" CO="207.07" HC="1.07" NOx="2.38" PMx="0.13" fuel="2.21" electricity="0.00" noise="136.14" route="routetop" type="cfm_slow" waiting="0.00" lane="top_0" pos="21.01" speed="0.55" angle="236.65" x="23.62" y="115.24"/>
        <vehicle id="cfm_slow_4" eclass="HBEFA3/PC_G_EU4" CO2="5141.41" CO="207.07" HC="1.07" NOx="2.38" PMx="0.13" fuel="2.21" electricity="0.00" noise="136.14" route="routeleft" type="cfm_slow" waiting="0.00" lane="left_0" pos="11.01" speed="0.55" angle="164.62" x="2.24" y="41.51"/>
    </timestep>
    <timestep time="0.04">
        <vehicle id="cfm_slow_0" eclass="HBEFA3/PC_G_EU4" CO2="5981.34" CO="221.25" HC="1.15" NOx="2.77" PMx="0.15" fuel="2.57" electricity="0.00" noise="136.21" route="routebottom" type="cfm_slow" waiting="0.00" lane="bottom_0" pos="1.02" speed="0.73" angle="92.63" x="65.78" y="-1.61"/>
        <vehicle id="cfm_slow_1" eclass="HBEFA3/PC_G_EU4" CO2="5981.34" CO="221.25" HC="1.15" NOx="2.77" PMx="0.15" fuel="2.57" electricity="0.00" noise="136.21" route="routebottom" type="cfm_slow" waiting="0.00" lane="bottom_0" pos="41.02" speed="0.73" angle="20.71" x="126.39" y="45.46"/>
        <vehicle id="cfm_slow_2" eclass="HBEFA3/PC_G_EU4" CO2="5981.34" CO="221.25" HC="1.15" NOx="2.77" PMx="0.15" fuel="2.57" electricity="0.00" noise="136.21" route="routeright" type="cfm_slow" waiting="0.00" lane="right_0" pos="31.02" speed="0.73" angle="308.67" x="100.34" y="117.69"/>
        <vehicle id="cfm_slow_3" eclass="HBEFA3/PC_G_EU4" CO2="5981.34" CO="221.25" HC="1.15" NOx="2.77" PMx="0.15" fuel="2.57" electricity="0.00" noise="136.21" route="routetop" type="cfm_slow" waiting="0.00" lane="top_0" pos="21.02" speed="0.73" angle="236.64" x="23.61" y="115.23"/>
        <vehicle id="cfm_slow_4" eclass="HBEFA3/PC_G_EU4" CO2="5981.34" CO="221.25" HC="1.15" NOx="2.77" PMx="0.15" fuel="2.57" electricity="0.00" noise="136.21" route="routeleft" type="cfm_slow" waiting="0.00" lane="left_0" pos="11.02" speed="0.73" angle="164.61" x="2.25" y="41.49"/>
    </timestep>
    <timestep time="0.05">
        <vehicle id="cfm_slow_0" eclass="HBEFA3/PC_G_EU4" CO2="6821.80" CO="235.46" HC="1.24" NOx="3.16" PMx="0.17" fuel="2.93" electricity="0.00" noise="136.28" route="routebottom" type="cfm_slow" waiting="0.00" lane="bottom_0" pos="1.03" speed="0.91" angle="92.62" x="65.80" y="-1.61"/>
        <vehicle id="cfm_slow_1" eclass="HBEFA3/PC_G_EU4" CO2="6821.80" CO="235.46" HC="1.24" NOx="3.16" PMx="0.17" fuel="2.93" electricity="0.00" noise="136.28" route="routebottom" type="cfm_slow" waiting="0.00" lane="bottom_0" pos="41.03" speed="0.91" angle="20.70" x="126.39" y="45.47"/>
        <vehicle id="cfm_slow_2" eclass="HBEFA3/PC_G_EU4" CO2="6821.80" CO="235.46" HC="1.24" NOx="3.16" PMx="0.17" fuel="2.93" electricity="0.00" noise="136.28" route="routeright" type="cfm_slow" waiting="0.00" lane="right_0" pos="31.03" speed="0.91" angle="308.65" x="100.33" y="117.70"/>
        <vehicle id="cfm_slow_3" eclass="HBEFA3/PC_G_EU4" CO2="6821.80" CO="235.46" HC="1.24" NOx="3.16" PMx="0.17" fuel="2.93" electricity="0.00" noise="136.28" route="routetop" type="cfm_slow" waiting="0.00" lane="top_0" pos="21.03" speed="0.91" angle="236.62" x="23.59" y="115.22"/>
        <vehicle id="cfm_slow_4" eclass="HBEFA3/PC_G_EU4" CO2="6821.80" CO="235.46" HC="1.24" NOx="3.16" PMx="0.17" fuel="2.93" electricity="0.00" noise="136.28" route="routeleft" type="cfm_slow" waiting="0.00" lane="left_0" pos="11.03" speed="0.91" angle="164.59" x="2.25" y="41.48"/>
    </timestep>
    <timestep time="0.06">
        <vehicle id="cfm_slow_0" eclass="HBEFA3/PC_G_EU4" CO2="7662.77" CO="249.72" HC="1.32" NOx="3.55" PMx="0.19" fuel="3.29" electricity="0.00" noise="136.35" route="routebottom" type="cfm_slow" waiting="0.00" lane="bottom_0" pos="1.04" speed="1.09" angle="92.60" x="65.82" y="-1.61"/>
        <vehicle id="cfm_slow_1" eclass="HBEFA3/PC_G_EU4" CO2="7662.77" CO="249.72" HC="1.32" NOx="3.55" PMx="0.19" fuel="3.29" electricity="0.00" noise="136.35" route="routebottom" type="cfm_slow" waiting="0.00" lane="bottom_0" pos="41.04" speed="1.09" angle="20.69" x="126.40" y="45.49"/>
        <vehicle id="cfm_slow_2" eclass="HBEFA3/PC_G_EU4" CO2="7662.77" CO="249.72" HC="1.32" NOx="3.55" PMx="0.19" fuel="3.29" electricity="0.00" noise="136.35" route="routeright" type="cfm_slow" waiting="0.00" lane="right_0" pos="31.04" speed="1.09" angle="308.63" x="100.31" y="117.71"/>
        <vehicle id="cfm_slow_3" eclass="HBEFA3/PC_G_EU4" CO2="7662.77" CO="249.72" HC="1.32" NOx="3.55" PMx="0.19" fuel="3.29" electricity="0.00" noise="136.35" route="routetop" type="cfm_slow" waiting="0.00" lane="top_0" pos="21.04" speed="1.09" angle="236.60" x="23.58" y="115.20"/>
        <vehicle id="cfm_slow_4" eclass="HBEFA3/PC_G_EU4" CO2="7662.77" CO="249.72" HC="1.32" NOx="3.55" PMx="0.19" fuel="3.29" electricity="0.00" noise="136.35" route="routeleft" type="cfm_slow" waiting="0.00" lane="left_0" pos="11.04" speed="1.09" angle="164.57" x="2.26" y="41.45"/>
    </timestep>
    <timestep time="0.07">
        <vehicle id="cfm_slow_0" eclass="HBEFA3/PC_G_EU4" CO2="8504.26" CO="264.01" HC="1.41" NOx="3.94" PMx="0.21" fuel="3.66" electricity="0.00" noise="136.42" route="routebottom" type="cfm_slow" waiting="0.00" lane="bottom_0" pos="1.05" speed="1.27" angle="92.57" x="65.84" y="-1.61"/>
        <vehicle id="cfm_slow_1" eclass="HBEFA3/PC_G_EU4" CO2="8504.26" CO="264.01" HC="1.41" NOx="3.94" PMx="0.21" fuel="3.66" electricity="0.00" noise="136.42" route="routebottom" type="cfm_slow" waiting="0.00" lane="bottom_0" pos="41.05" speed="1.27" angle="20.66" x="126.41" y="45.52"/>
        <vehicle id="cfm_slow_2" eclass="HBEFA3/PC_G_EU4" CO2="8504.26" CO="264.01" HC="1.41" NOx="3.94" PMx="0.21" fuel="3.66" electricity="0.00" noise="136.42" route="routeright" type="cfm_slow" waiting="0.00" lane="right_0" pos="31.05" speed="1.27" angle="308.61" x="100.29" y="117.73"/>
        <vehicle id="cfm_slow_3" eclass="HBEFA3/PC_G_EU4" CO2="8504.26" CO="264.01" HC="1.41" NOx="3.94" PMx="0.21" fuel="3.66" electricity="0.00" noise="136.42" route="routetop" type="cfm_slow" waiting="0.00" lane="top_0" pos="21.05" speed="1.27" angle="236.58" x="23.56" y="115.19"/>
        <vehicle id="cfm_slow_4" eclass="HBEFA3/PC_G_EU4" CO2="8504.26" CO="264.01" HC="1.41" NOx="3.94" PMx="0.21" fuel="3.66" electricity="0.00" noise="136.42" route="routeleft" type="cfm_slow" waiting="0.00" lane="left_0" pos="11.05" speed="1.27" angle="164.55" x="2.27" y="41.43"/>
    </timestep>
    <timestep time="0.08">
        <vehicle id="cfm_slow_0" eclass="HBEFA3/PC_G_EU4" CO2="9346.27" CO="278.34" HC="1.50" NOx="4.34" PMx="0.23" fuel="4.02" electricity="0.00" noise="136.49" route="routebottom" type="cfm_slow" waiting="0.00" lane="bottom_0" pos="1.07" speed="1.45" angle="92.55" x="65.87" y="-1.61"/>
        <vehicle id="cfm_slow_1" eclass="HBEFA3/PC_G_EU4" CO2="9346.27" CO="278.34" HC="1.50" NOx="4.34" PMx="0.23" fuel="4.02" electricity="0.00" noise="136.49" route="routebottom" type="cfm_slow" waiting="0.00" lane="bottom_0" pos="41.07" speed="1.45" angle="20.64" x="126.42" y="45.55"/>
        <vehicle id="cfm_slow_2" eclass="HBEFA3/PC_G_EU4" CO2="9346.27" CO="278.34" HC="1.50" NOx="4.34" PMx="0.23" fuel="4.02" electricity="0.00" noise="136.49" route="routeright" type="cfm_slow" waiting="0.00" lane="right_0" pos="31.07" speed="1.45" angle="308.58" x="100.26" y="117.74"/>
        <vehicle id="cfm_slow_3" eclass="HBEFA3/PC_G_EU4" CO2="9346.27" CO="278.34" HC="1.50" NOx="4.34" PMx="0.23" fuel="4.02" electricity="0.00" noise="136.49" route="routetop" type="cfm_slow" waiting="0.00" lane="top_0" pos="21.07" speed="1.45" angle="236.55" x="23.53" y="115.17"/>
        <vehicle id="cfm_slow_4" eclass="HBEFA3/PC_G_EU4" CO2="9346.27" CO="278.34" HC="1.50" NOx="4.34" PMx="0.23" fuel="4.02" electricity="0.00" noise="136.49" route="routeleft" type="cfm_slow" waiting="0.00" lane="left_0" pos="11.07" speed="1.45" angle="164.52" x="2.28" y="41.40"/>
    </timestep>
    <timestep time="0.09">
        <vehicle id="cfm_slow_0" eclass="HBEFA3/PC_G_EU4" CO2="10188.80" CO="292.70" HC="1.58" NOx="4.73" PMx="0.25" fuel="4.38" electricity="0.00" noise="136.56" route="routebottom" type="cfm_slow" waiting="0.00" lane="bottom_0" pos="1.08" speed="1.64" angle="92.52" x="65.91" y="-1.61"/>
        <vehicle id="cfm_slow_1" eclass="HBEFA3/PC_G_EU4" CO2="10188.80" CO="292.70" HC="1.58" NOx="4.73" PMx="0.25" fuel="4.38" electricity="0.00" noise="136.56" route="routebottom" type="cfm_slow" waiting="0.00" lane="bottom_0" pos="41.08" speed="1.64" angle="20.60" x="126.42" y="45.58"/>
        <vehicle id="cfm_slow_2" eclass="HBEFA3/PC_G_EU4" CO2="10188.80" CO="292.70" HC="1.58" NOx="4.73" PMx="0.25" fuel="4.38" electricity="0.00" noise="136.56" route="routeright" type="cfm_slow" waiting="0.00" lane="right_0" pos="31.08" speed="1.64" angle="308.55" x="100.23" y="117.76"/>
        <vehicle id="cfm_slow_3" eclass="HBEFA3/PC_G_EU4" CO2="10188.80" CO="292.70" HC="1.58" NOx="4.73" PMx="0.25" fuel="4.38" electricity="0.00" noise="136.56" route="routetop" type="cfm_slow" waiting="0.00" lane="top_0" pos="21.08" speed="1.64" angle="236.52" x="23.51" y="115.15"/>
        <vehicle id="cfm_slow_4" eclass="HBEFA3/PC_G_EU4" CO2="10188.80" CO="292.70" HC="1.58" NOx="4.73" PMx="0.25" fuel="4.38" electricity="0.00" noise="136.56" route="routeleft" type="cfm_slow" waiting="0.00" lane="left_0" pos="11.08" speed="1.64" angle="164.49" x="2.29" y="41.37"/>
    </timestep>
    <timestep time="0.10">
        <vehicle id="cfm_slow_0" eclass="HBEFA3/PC_G_EU4" CO2="11031.84" CO="307.11" HC="1.67" NOx="5.12" PMx="0.28" fuel="4.74" electricity="0.00" noise="136.63" route="routebottom" type="cfm_slow" waiting="0.00" lane="bottom_0" pos="1.10" speed="1.82" angle="92.48" x="65.95" y="-1.61"/>
        <vehicle id="cfm_slow_1" eclass="HBEFA3/PC_G_EU4" CO2="11031.84" CO="307.11" HC="1.67" NOx="5.12" PMx="0.28" fuel="4.74" electricity="0.00" noise="136.63" route="routebottom" type="cfm_slow" waiting="0.00" lane="bottom_0" pos="41.10" speed="1.82" angle="20.57" x="126.43" y="45.62"/>
        <vehicle id="cfm_slow_2" eclass="HBEFA3/PC_G_EU4" CO2="11031.84" CO="307.11" HC="1.67" NOx="5.12" PMx="0.28" fuel="4.74" electricity="0.00" noise="136.63" route="routeright" type="cfm_slow" waiting="0.00" lane="right_0" pos="31.10" speed="1.82" angle="308.52" x="100.20" y="117.78"/>
        <vehicle id="cfm_slow_3" eclass="HBEFA3/PC_G_EU4" CO2="11031.84" CO="307.11" HC="1.67" NOx="5.12" PMx="0.28" fuel="4.74" electricity="0.00" noise="136.63" route="routetop" type="cfm_slow" waiting="0.00" lane="top_0" pos="21.10" speed="1.82" angle="236.49" x="23.48" y="115.12"/>
        <vehicle id="cfm_slow_4" eclass="HBEFA3/PC_G_EU4" CO2="11031.84" CO="307.11" HC="1.67" NOx="5.12" PMx="0.28" fuel="4.74" electricity="0.00" noise="136.63" route="routeleft" type="cfm_slow" waiting="0.00" lane="left_0" pos="11.10" speed="1.82" angle="164.46" x="2.30" y="41.33"/>
    </timestep>
    <timestep time="0.11">
        <vehicle id="cfm_slow_0" eclass="HBEFA3/PC_G_EU4" CO2="11875.41" CO="321.55" HC="1.75" NOx="5.51" PMx="0.30" fuel="5.10" electricity="0.00" noise="136.70" route="routebottom" type="cfm_slow" waiting="0.00" lane="bottom_0" pos="1.12" speed="2.00" angle="92.45" x="65.99" y="-1.61"/>
        <vehicle id="cfm_slow_1" eclass="HBEFA3/PC_G_EU4" CO2="11875.41" CO="321.55" HC="1.75" NOx="5.51" PMx="0.30" fuel="5.10" electricity="0.00" noise="136.70" route="routebottom" type="cfm_slow" waiting="0.00" lane="bottom_0" pos="41.12" speed="2.00" angle="20.53" x="126.44" y="45.66"/>
        <vehicle id="cfm_slow_2" eclass="HBEFA3/PC_G_EU4" CO2="11875.41" CO="321.55" HC="1.75" NOx="5.51" PMx="0.30" fuel="5.10" electricity="0.00" noise="136.70" route="routeright" type="cfm_slow" waiting="0.00" lane="right_0" pos="31.12" speed="2.00" angle="308.48" x="100.17" y="117.80"/>
        <vehicle id="cfm_slow_3" eclass="HBEFA3/PC_G_EU4" CO2="11875.41" CO="321.55" HC="1.75" NOx="5.51" PMx="0.30" fuel="5.10" electricity="0.00" noise="136.70" route="routetop" type="cfm_slow" waiting="0.00" lane="top_0" pos="21.12" speed="2.00" angle="236.45" x="23.44" y="115.10"/>
        <vehicle id="cfm_slow_4" eclass="HBEFA3/PC_G_EU4" CO2="11875.41" CO="321.55" HC="1.75" NOx="5.51" PMx="0.30" fuel="5.10" electricity="0.00" noise="136.70" route="routeleft" type="cfm_slow" waiting="0.00" lane="left_0" pos="11.12" speed="2.00" angle="164.42" x="2.32" y="41.30"/>
    </timestep>
    <timestep time="0.12">
        <vehicle id="cfm_slow_0" eclass="HBEFA3/PC_G_EU4" CO2="12719.50" CO="336.03" HC="1.84" NOx="5.91" PMx="0.32" fuel="5.47" electricity="0.00" noise="136.77" route="routebottom" type="cfm_slow" waiting="0.00" lane="bottom_0" pos="1.14" speed="2.18" angle="92.41" x="66.03" y="-1.60"/>
        <vehicle id="cfm_slow_1" eclass="HBEFA3/PC_G_EU4" CO2="12719.50" CO="336.03" HC="1.84" NOx="5.91" PMx="0.32" fuel="5.47" electricity="0.00" noise="136.77" route="routebottom" type="cfm_slow" waiting="0.00" lane="bottom_0" pos="41.14" speed="2.18" angle="20.49" x="126.46" y="45.70"/>
        <vehicle id="cfm_slow_2" eclass="HBEFA3/PC_G_EU4" CO2="12719.50" CO="336.03" HC="1.84" NOx="5.91" PMx="0.32" fuel="5.47" electricity="0.00" noise="136.77" route="routeright" type="cfm_slow" waiting="0.00" lane="right_0" pos="31.14" speed="2.18" angle="308.44" x="100.13" y="117.83"/>
        <vehicle id="cfm_slow_3" eclass="HBEFA3/PC_G_EU4" CO2="12719.50" CO="336.03" HC="1.84" NOx="5.91" PMx="0.32" fuel="5.47" electricity="0.00" noise="136.77" route="routetop" type="cfm_slow" waiting="0.00" lane="top_0" pos="21.14" speed="2.18" angle="236.41" x="23.41" y="115.07"/>
        <vehicle id="cfm_slow_4" eclass="HBEFA3/PC_G_EU4" CO2="12719.50" CO="336.03" HC="1.84" NOx="5.91" PMx="0.32" fuel="5.47" electricity="0.00" noise="136.77" route="routeleft" type="cfm_slow" waiting="0.00" lane="left_0" pos="11.14" speed="2.18" angle="164.38" x="2.33" y="41.25"/>
    </timestep>
    <timestep time="0.13">
        <vehicle id="cfm_slow_0" eclass="HBEFA3/PC_G_EU4" CO2="13564.10" CO="350.56" HC="1.93" NOx="6.30" PMx="0.34" fuel="5.83" electricity="0.00" noise="136.84" route="routebottom" type="cfm_slow" waiting="0.00" lane="bottom_0" pos="1.17" speed="2.36" angle="92.36" x="66.08" y="-1.60"/>
        <vehicle id="cfm_slow_1" eclass="HBEFA3/PC_G_EU4" CO2="13564.10" CO="350.56" HC="1.93" NOx="6.30" PMx="0.34" fuel="5.83" electricity="0.00" noise="136.84" route="routebottom" type="cfm_slow" waiting="0.00" lane="bottom_0" pos="41.17" speed="2.36" angle="20.45" x="126.47" y="45.75"/>
        <vehicle id="cfm_slow_2" eclass="HBEFA3/PC_G_EU4" CO2="13564.10" CO="350.56" HC="1.93" NOx="6.30" PMx="0.34" fuel="5.83" electricity="0.00" noise="136.84" route="routeright" type="cfm_slow" waiting="0.00" lane="right_0" pos="31.17" speed="2.36" angle="308.40" x="100.09" y="117.86"/>
        <vehicle id="cfm_slow_3" eclass="HBEFA3/PC_G_EU4" CO2="13564.10" CO="350.56" HC="1.93" NOx="6.30" PMx="0.34" fuel="5.83" electricity="0.00" noise="136.84" route="routetop" type="cfm_slow" waiting="0.00" lane="top_0" pos="21.17" speed="2.36" angle="236.37" x="23.37" y="115.04"/>
        <vehicle id="cfm_slow_4" eclass="HBEFA3/PC_G_EU4" CO2="13564.10" CO="350.56" HC="1.93" NOx="6.30" PMx="0.34" fuel="5.83" electricity="0.00" noise="136.84" route="routeleft" type="cfm_slow" waiting="0.00" lane="left_0" pos="11.17" speed="2.36" angle="164.33" x="2.35" y="41.21"/>
    </timestep>
    <timestep time="0.14">
        <vehicle id="cfm_slow_0" eclass="HBEFA3/PC_G_EU4" CO2="14409.22" CO="365.11" HC="2.02" NOx="6.70" PMx="0.36" fuel="6.19" electricity="0.00" noise="136.91" route="routebottom" type="cfm_slow" waiting="0.00" lane="bottom_0" pos="1.19" speed="2.55" angle="92.33" x="66.13" y="-1.60"/>
        <vehicle id="cfm_slow_1" eclass="HBEFA3/PC_G_EU4" CO2="14409.22" CO="365.11" HC="2.02" NOx="6.70" PMx="0.36" fuel="6.19" electricity="0.00" noise="136.91" route="routebottom" type="cfm_slow" waiting="0.00" lane="bottom_0" pos="41.19" speed="2.55" angle="20.40" x="126.48" y="45.80"/>
        <vehicle id="cfm_slow_2" eclass="HBEFA3/PC_G_EU4" CO2="14409.22" CO="365.11" HC="2.02" NOx="6.70" PMx="0.36" fuel="6.19" electricity="0.00" noise="136.91" route="routeright" type="cfm_slow" waiting="0.00" lane="right_0" pos="31.19" speed="2.55" angle="308.35" x="100.05" y="117.89"/>
        <vehicle id="cfm_slow_3" eclass="HBEFA3/PC_G_EU4" CO2="14409.22" CO="365.11" HC="2.02" NOx="6.70" PMx="0.36" fuel="6.19" electricity="0.00" noise="136.91" route="routetop" type="cfm_slow" waiting="0.00" lane="top_0" pos="21.19" speed="2.55" angle="236.33" x="23.33" y="115.01"/>
        <vehicle id="cfm_slow_4" eclass="HBEFA3/PC_G_EU4" CO2="14409.22" CO="365.11" HC="2.02" NOx="6.70" PMx="0.36" fuel="6.19" electricity="0.00" noise="136.91" route="routeleft" type="cfm_slow" waiting="0.00" lane="left_0" pos="11.19" speed="2.55" angle="164.29" x="2.37" y="41.16"/>
    </timestep>
    <timestep time="0.15">
        <vehicle id="cfm_slow_0" eclass="HBEFA3/PC_G_EU4" CO2="15254.87" CO="379.71" HC="2.10" NOx="7.09" PMx="0.38" fuel="6.56" electricity="0.00" noise="136.99" route="routebottom" type="cfm_slow" waiting="0.00" lane="bottom_0" pos="1.22" speed="2.73" angle="92.29" x="66.19" y="-1.60"/>
        <vehicle id="cfm_slow_1" eclass="HBEFA3/PC_G_EU4" CO2="15254.87" CO="379.71" HC="2.10" NOx="7.09" PMx="0.38" fuel="6.56" electricity="0.00" noise="136.99" route="routebottom" type="cfm_slow" waiting="0.00" lane="bottom_0" pos="41.22" speed="2.73" angle="20.35" x="126.50" y="45.85"/>
        <vehicle id="cfm_slow_2" eclass="HBEFA3/PC_G_EU4" CO2="15254.87" CO="379.71" HC="2.10" NOx="7.09" PMx="0.38" fuel="6.56" electricity="0.00" noise="136.99" route="routeright" type="cfm_slow" waiting="0.00" lane="right_0" pos="31.22" speed="2.73" angle="308.30" x="100.00" y="117.92"/>
        <vehicle id="cfm_slow_3" eclass="HBEFA3/PC_G_EU4" CO2="15254.87" CO="379.71" HC="2.10" NOx="7.09" PMx="0.38" fuel="6.56" electricity="0.00" noise="136.99" route="routetop" type="cfm_slow" waiting="0.00" lane="top_0" pos="21.22" speed="2.73" angle="236.28" x="23.29" y="114.97"/>
        <vehicle id="cfm_slow_4" eclass="HBEFA3/PC_G_EU4" CO2="15254.87" CO="379.71" HC="2.10" NOx="7.09" PMx="0.38" fuel="6.56" electricity="0.00" noise="136.99" route="routeleft" type="cfm_slow" waiting="0.00" lane="left_0" pos="11.22" speed="2.73" angle="164.24" x="2.38" y="41.11"/>
    </timestep>
    <timestep time="0.16">
        <vehicle id="cfm_slow_0" eclass="HBEFA3/PC_G_EU4" CO2="16101.03" CO="394.35" HC="2.19" NOx="7.48" PMx="0.40" fuel="6.92" electricity="0.00" noise="137.06" route="routebottom" type="cfm_slow" waiting="0.00" lane="bottom_0" pos="1.25" speed="2.91" angle="92.25" x="66.25" y="-1.60"/>
        <vehicle id="cfm_slow_1" eclass="HBEFA3/PC_G_EU4" CO2="16101.03" CO="394.35" HC="2.19" NOx="7.48" PMx="0.40" fuel="6.92" electricity="0.00" noise="137.06" route="routebottom" type="cfm_slow" waiting="0.00" lane="bottom_0" pos="41.25" speed="2.91" angle="20.29" x="126.51" y="45.91"/>
        <vehicle id="cfm_slow_2" eclass="HBEFA3/PC_G_EU4" CO2="16101.03" CO="394.35" HC="2.19" NOx="7.48" PMx="0.40" fuel="6.92" electricity="0.00" noise="137.06" route="routeright" type="cfm_slow" waiting="0.00" lane="right_0" pos="31.25" speed="2.91" angle="308.25" x="99.95" y="117.95"/>
        <vehicle id="cfm_slow_3" eclass="HBEFA3/PC_G_EU4" CO2="16101.03" CO="394.35" HC="2.19" NOx="7.48" PMx="0.40" fuel="6.92" electricity="0.00" noise="137.06" route="routetop" type="cfm_slow" waiting="0.00" lane="top_0" pos="21.25" speed="2.91" angle="236.22" x="23.24" y="114.94"/>
        <vehicle id="cfm_slow_4" eclass="HBEFA3/PC_G_EU4" CO2="16101.03" CO="394.35" HC="2.19" NOx="7.48" PMx="0.40" fuel="6.92" electricity="0.00" noise="137.06" route="routeleft" type="cfm_slow" waiting="0.00" lane="left_0" pos="11.25" speed="2.91" angle="164.18" x="2.41" y="41.05"/>
    </timestep>
    <timestep time="0.17">
        <vehicle id="cfm_slow_0" eclass="HBEFA3/PC_G_EU4" CO2="16947.71" CO="409.02" HC="2.28" NOx="7.88" PMx="0.42" fuel="7.29" electricity="0.00" noise="137.13" route="routebottom" type="cfm_slow" waiting="0.00" lane="bottom_0" pos="1.28" speed="3.09" angle="92.20" x="66.31" y="-1.60"/>
        <vehicle id="cfm_slow_1" eclass="HBEFA3/PC_G_EU4" CO2="16947.71" CO="409.02" HC="2.28" NOx="7.88" PMx="0.42" fuel="7.29" electricity="0.00" noise="137.13" route="routebottom" type="cfm_slow" waiting="0.00" lane="bottom_0" pos="41.28" speed="3.09" angle="20.24" x="126.53" y="45.97"/>
        <vehicle id="cfm_slow_2" eclass="HBEFA3/PC_G_EU4" CO2="16947.71" CO="409.02" HC="2.28" NOx="7.88" PMx="0.42" fuel="7.29" electricity="0.00" noise="137.13" route="routeright" type="cfm_slow" waiting="0.00" lane="right_0" pos="31.28" speed="3.09" angle="308.19" x="99.90" y="117.98"/>
        <vehicle id="cfm_slow_3" eclass="HBEFA3/PC_G_EU4" CO2="16947.71" CO="409.02" HC="2.28" NOx="7.88" PMx="0.42" fuel="7.29" electricity="0.00" noise="137.13" route="routetop" type="cfm_slow" waiting="0.00" lane="top_0" pos="21.28" speed="3.09" angle="236.17" x="23.19" y="114.90"/>
        <vehicle id="cfm_slow_4" eclass="HBEFA3/PC_G_EU4" CO2="16947.71" CO="409.02" HC="2.28" NOx="7.88" PMx="0.42" fuel="7.29" electricity="0.00" noise="137.13" route="routeleft" type="cfm_slow" waiting="0.00" lane="left_0" pos="11.28" speed="3.09" angle="164.12" x="2.43" y="40.99"/>
    </timestep>
    <timestep time="0.18">
        <vehicle id="cfm_slow_0" eclass="HBEFA3/PC_G_EU4" CO2="17794.91" CO="423.73" HC="2.37" NOx="8.27" PMx="0.45" fuel="7.65" electricity="0.00" noise="137.20" route="routebottom" type="cfm_slow" waiting="0.00" lane="bottom_0" pos="1.31" speed="3.27" angle="92.15" x="66.38" y="-1.59"/>
        <vehicle id="cfm_slow_1" eclass="HBEFA3/PC_G_EU4" CO2="17794.91" CO="423.73" HC="2.37" NOx="8.27" PMx="0.45" fuel="7.65" electricity="0.00" noise="137.20" route="routebottom" type="cfm_slow" waiting="0.00" lane="bottom_0" pos="41.31" speed="3.27" angle="20.18" x="126.54" y="46.04"/>
        <vehicle id="cfm_slow_2" eclass="HBEFA3/PC_G_EU4" CO2="17794.91" CO="423.73" HC="2.37" NOx="8.27" PMx="0.45" fuel="7.65" electricity="0.00" noise="137.20" route="routeright" type="cfm_slow" waiting="0.00" lane="right_0" pos="31.31" speed="3.27" angle="308.13" x="99.84" y="118.02"/>
        <vehicle id="cfm_slow_3" eclass="HBEFA3/PC_G_EU4" CO2="17794.91" CO="423.73" HC="2.37" NOx="8.27" PMx="0.45" fuel="7.65" electricity="0.00" noise="137.20" route="routetop" type="cfm_slow" waiting="0.00" lane="top_0" pos="21.31" speed="3.27" angle="236.11" x="23.14" y="114.86"/>
        <vehicle id="cfm_slow_4" eclass="HBEFA3/PC_G_EU4" CO2="17794.91" CO="423.73" HC="2.37" NOx="8.27" PMx="0.45" fuel="7.65" electricity="0.00" noise="137.20" route="routeleft" type="cfm_slow" waiting="0.00" lane="left_0" pos="11.31" speed="3.27" angle="164.06" x="2.45" y="40.93"/>
    </timestep>
    <timestep time="0.19">