<?xml version="1.0" encoding="UTF-8"?>

<!-- generated on Sun Mar 12 03:17:10 2017 by SUMO Version 0.29.0
<?xml version="1.0" encoding="UTF-8"?>

<configuration xmlns:xsi="http://www.w3.org/2001/XMLSchema-instance" xsi:noNamespaceSchemaLocation="http://sumo.dlr.de/xsd/sumoConfiguration.xsd">

    <input>
        <net-file value="tests/debug/cfg/test-two-lane-two-controller-200m2l.net.xml"/>
        <route-files value="tests/debug/cfg/test-two-lane-two-controller-200m2l.rou.xml"/>
        <additional-files value="tests/debug/cfg/test-two-lane-two-controller-200m2l.add.xml"/>
    </input>

    <output>
        <netstate-dump value="tests/debug/cfg/data/test-two-lane-two-controller-200m2l.netstate.xml"/>
        <emission-output value="tests/debug/cfg/data/test-two-lane-two-controller-200m2l.emission.xml"/>
        <amitran-output value="tests/debug/cfg/data/test-two-lane-two-controller-200m2l.amitran.xml"/>
        <lanechange-output value="tests/debug/cfg/data/test-two-lane-two-controller-200m2l.lanechange.xml"/>
    </output>

    <time>
        <begin value="0"/>
        <end value="1000"/>
        <step-length value="0.01"/>
    </time>

    <traci_server>
        <remote-port value="8873"/>
    </traci_server>

    <gui_only>
        <gui-settings-file value="tests/debug/cfg/test-two-lane-two-controller-200m2l.gui.cfg"/>
    </gui_only>

</configuration>
-->

<netstate xmlns:xsi="http://www.w3.org/2001/XMLSchema-instance" xsi:noNamespaceSchemaLocation="http://sumo.dlr.de/xsd/netstate_file.xsd">
    <timestep time="0.00">
        <edge id="bottom">
            <lane id="bottom_0">
                <vehicle id="cfm-slow_0" pos="1.00" speed="0.00"/>
                <vehicle id="cfm-slow_1" pos="17.67" speed="0.00"/>
                <vehicle id="cfm-slow_2" pos="34.33" speed="0.00"/>
            </lane>
            <lane id="bottom_1"/>
        </edge>
        <edge id="left">
            <lane id="left_0">
                <vehicle id="cfm-fast_3" pos="1.00" speed="0.00"/>
                <vehicle id="cfm-fast_4" pos="17.67" speed="0.00"/>
                <vehicle id="cfm-fast_5" pos="34.33" speed="0.00"/>
            </lane>
            <lane id="left_1"/>
        </edge>
        <edge id="right">
            <lane id="right_0">
                <vehicle id="cfm-slow_3" pos="1.00" speed="0.00"/>
                <vehicle id="cfm-slow_4" pos="17.67" speed="0.00"/>
                <vehicle id="cfm-slow_5" pos="34.33" speed="0.00"/>
            </lane>
            <lane id="right_1"/>
        </edge>
        <edge id="top">
            <lane id="top_0">
                <vehicle id="cfm-fast_0" pos="1.00" speed="0.00"/>
                <vehicle id="cfm-fast_1" pos="17.67" speed="0.00"/>
                <vehicle id="cfm-fast_2" pos="34.33" speed="0.00"/>
            </lane>
            <lane id="top_1"/>
        </edge>
    </timestep>
    <timestep time="0.01">
        <edge id="bottom">
            <lane id="bottom_0">
                <vehicle id="cfm-slow_0" pos="1.00" speed="0.18"/>
                <vehicle id="cfm-slow_1" pos="17.67" speed="0.18"/>
                <vehicle id="cfm-slow_2" pos="34.34" speed="0.18"/>
            </lane>
            <lane id="bottom_1"/>
        </edge>
        <edge id="left">
            <lane id="left_0">
                <vehicle id="cfm-fast_3" pos="1.00" speed="0.18"/>
                <vehicle id="cfm-fast_4" pos="17.67" speed="0.18"/>
                <vehicle id="cfm-fast_5" pos="34.34" speed="0.18"/>
            </lane>
            <lane id="left_1"/>
        </edge>
        <edge id="right">
            <lane id="right_0">
                <vehicle id="cfm-slow_3" pos="1.00" speed="0.18"/>
                <vehicle id="cfm-slow_4" pos="17.67" speed="0.18"/>
                <vehicle id="cfm-slow_5" pos="34.34" speed="0.18"/>
            </lane>
            <lane id="right_1"/>
        </edge>
        <edge id="top">
            <lane id="top_0">
                <vehicle id="cfm-fast_0" pos="1.00" speed="0.18"/>
                <vehicle id="cfm-fast_1" pos="17.67" speed="0.18"/>
                <vehicle id="cfm-fast_2" pos="34.34" speed="0.18"/>
            </lane>
            <lane id="top_1"/>
        </edge>
    </timestep>
    <timestep time="0.02">
        <edge id="bottom">
            <lane id="bottom_0">
                <vehicle id="cfm-slow_0" pos="1.01" speed="0.36"/>
                <vehicle id="cfm-slow_1" pos="17.67" speed="0.36"/>
                <vehicle id="cfm-slow_2" pos="34.34" speed="0.36"/>
            </lane>
            <lane id="bottom_1"/>
        </edge>
        <edge id="left">
            <lane id="left_0">
                <vehicle id="cfm-fast_3" pos="1.01" speed="0.36"/>
                <vehicle id="cfm-fast_4" pos="17.67" speed="0.36"/>
                <vehicle id="cfm-fast_5" pos="34.34" speed="0.36"/>
            </lane>
            <lane id="left_1"/>
        </edge>
        <edge id="right">
            <lane id="right_0">
                <vehicle id="cfm-slow_3" pos="1.01" speed="0.36"/>
                <vehicle id="cfm-slow_4" pos="17.67" speed="0.36"/>
                <vehicle id="cfm-slow_5" pos="34.34" speed="0.36"/>
            </lane>
            <lane id="right_1"/>
        </edge>
        <edge id="top">
            <lane id="top_0">
                <vehicle id="cfm-fast_0" pos="1.01" speed="0.36"/>
                <vehicle id="cfm-fast_1" pos="17.67" speed="0.36"/>
                <vehicle id="cfm-fast_2" pos="34.34" speed="0.36"/>
            </lane>
            <lane id="top_1"/>
        </edge>
    </timestep>
    <timestep time="0.03">
        <edge id="bottom">
            <lane id="bottom_0">
                <vehicle id="cfm-slow_0" pos="1.01" speed="0.55"/>
                <vehicle id="cfm-slow_1" pos="17.68" speed="0.55"/>
                <vehicle id="cfm-slow_2" pos="34.34" speed="0.55"/>
            </lane>
            <lane id="bottom_1"/>
        </edge>
        <edge id="left">
            <lane id="left_0">
                <vehicle id="cfm-fast_3" pos="1.01" speed="0.55"/>
                <vehicle id="cfm-fast_4" pos="17.68" speed="0.55"/>
                <vehicle id="cfm-fast_5" pos="34.34" speed="0.55"/>
            </lane>
            <lane id="left_1"/>
        </edge>
        <edge id="right">
            <lane id="right_0">
                <vehicle id="cfm-slow_3" pos="1.01" speed="0.55"/>
                <vehicle id="cfm-slow_4" pos="17.68" speed="0.55"/>
                <vehicle id="cfm-slow_5" pos="34.34" speed="0.55"/>
            </lane>
            <lane id="right_1"/>
        </edge>
        <edge id="top">
            <lane id="top_0">
                <vehicle id="cfm-fast_0" pos="1.01" speed="0.55"/>
                <vehicle id="cfm-fast_1" pos="17.68" speed="0.55"/>
                <vehicle id="cfm-fast_2" pos="34.34" speed="0.55"/>
            </lane>
            <lane id="top_1"/>
        </edge>
    </timestep>
    <timestep time="0.04">
        <edge id="bottom">
            <lane id="bottom_0">
                <vehicle id="cfm-slow_0" pos="1.02" speed="0.73"/>
                <vehicle id="cfm-slow_1" pos="17.68" speed="0.73"/>
                <vehicle id="cfm-slow_2" pos="34.35" speed="0.73"/>
            </lane>
            <lane id="bottom_1"/>
        </edge>
        <edge id="left">
            <lane id="left_0">
                <vehicle id="cfm-fast_3" pos="1.02" speed="0.73"/>
                <vehicle id="cfm-fast_4" pos="17.68" speed="0.73"/>
                <vehicle id="cfm-fast_5" pos="34.35" speed="0.73"/>
            </lane>
            <lane id="left_1"/>
        </edge>
        <edge id="right">
            <lane id="right_0">
                <vehicle id="cfm-slow_3" pos="1.02" speed="0.73"/>
                <vehicle id="cfm-slow_4" pos="17.68" speed="0.73"/>
                <vehicle id="cfm-slow_5" pos="34.35" speed="0.73"/>
            </lane>
            <lane id="right_1"/>
        </edge>
        <edge id="top">
            <lane id="top_0">
                <vehicle id="cfm-fast_0" pos="1.02" speed="0.73"/>
                <vehicle id="cfm-fast_1" pos="17.68" speed="0.73"/>
                <vehicle id="cfm-fast_2" pos="34.35" speed="0.73"/>
            </lane>
            <lane id="top_1"/>
        </edge>
    </timestep>
    <timestep time="0.05">
        <edge id="bottom">
            <lane id="bottom_0">
                <vehicle id="cfm-slow_0" pos="1.03" speed="0.91"/>
                <vehicle id="cfm-slow_1" pos="17.69" speed="0.91"/>
                <vehicle id="cfm-slow_2" pos="34.36" speed="0.91"/>
            </lane>
            <lane id="bottom_1"/>
        </edge>
        <edge id="left">
            <lane id="left_0">
                <vehicle id="cfm-fast_3" pos="1.03" speed="0.91"/>
                <vehicle id="cfm-fast_4" pos="17.69" speed="0.91"/>
                <vehicle id="cfm-fast_5" pos="34.36" speed="0.91"/>
            </lane>
            <lane id="left_1"/>
        </edge>
        <edge id="right">
            <lane id="right_0">
                <vehicle id="cfm-slow_3" pos="1.03" speed="0.91"/>
                <vehicle id="cfm-slow_4" pos="17.69" speed="0.91"/>
                <vehicle id="cfm-slow_5" pos="34.36" speed="0.91"/>
            </lane>
            <lane id="right_1"/>
        </edge>
        <edge id="top">
            <lane id="top_0">
                <vehicle id="cfm-fast_0" pos="1.03" speed="0.91"/>
                <vehicle id="cfm-fast_1" pos="17.69" speed="0.91"/>
                <vehicle id="cfm-fast_2" pos="34.36" speed="0.91"/>
            </lane>
            <lane id="top_1"/>
        </edge>
    </timestep>
    <timestep time="0.06">
        <edge id="bottom">
            <lane id="bottom_0">
                <vehicle id="cfm-slow_0" pos="1.04" speed="1.09"/>
                <vehicle id="cfm-slow_1" pos="17.70" speed="1.09"/>
                <vehicle id="cfm-slow_2" pos="34.37" speed="1.09"/>
            </lane>
            <lane id="bottom_1"/>
        </edge>
        <edge id="left">
            <lane id="left_0">
                <vehicle id="cfm-fast_3" pos="1.04" speed="1.09"/>
                <vehicle id="cfm-fast_4" pos="17.70" speed="1.09"/>
                <vehicle id="cfm-fast_5" pos="34.37" speed="1.09"/>
            </lane>
            <lane id="left_1"/>
        </edge>
        <edge id="right">
            <lane id="right_0">
                <vehicle id="cfm-slow_3" pos="1.04" speed="1.09"/>
                <vehicle id="cfm-slow_4" pos="17.70" speed="1.09"/>
                <vehicle id="cfm-slow_5" pos="34.37" speed="1.09"/>
            </lane>
            <lane id="right_1"/>
        </edge>
        <edge id="top">
            <lane id="top_0">
                <vehicle id="cfm-fast_0" pos="1.04" speed="1.09"/>
                <vehicle id="cfm-fast_1" pos="17.70" speed="1.09"/>
                <vehicle id="cfm-fast_2" pos="34.37" speed="1.09"/>
            </lane>
            <lane id="top_1"/>
        </edge>
    </timestep>
    <timestep time="0.07">
        <edge id="bottom">
            <lane id="bottom_0">
                <vehicle id="cfm-slow_0" pos="1.05" speed="1.27"/>
                <vehicle id="cfm-slow_1" pos="17.72" speed="1.27"/>
                <vehicle id="cfm-slow_2" pos="34.38" speed="1.27"/>
            </lane>
            <lane id="bottom_1"/>
        </edge>
        <edge id="left">
            <lane id="left_0">
                <vehicle id="cfm-fast_3" pos="1.05" speed="1.27"/>
                <vehicle id="cfm-fast_4" pos="17.72" speed="1.27"/>
                <vehicle id="cfm-fast_5" pos="34.38" speed="1.27"/>
            </lane>
            <lane id="left_1"/>
        </edge>
        <edge id="right">
            <lane id="right_0">
                <vehicle id="cfm-slow_3" pos="1.05" speed="1.27"/>
                <vehicle id="cfm-slow_4" pos="17.72" speed="1.27"/>
                <vehicle id="cfm-slow_5" pos="34.38" speed="1.27"/>
            </lane>
            <lane id="right_1"/>
        </edge>
        <edge id="top">
            <lane id="top_0">
                <vehicle id="cfm-fast_0" pos="1.05" speed="1.27"/>
                <vehicle id="cfm-fast_1" pos="17.72" speed="1.27"/>
                <vehicle id="cfm-fast_2" pos="34.38" speed="1.27"/>
            </lane>
            <lane id="top_1"/>
        </edge>
    </timestep>
    <timestep time="0.08">
        <edge id="bottom">
            <lane id="bottom_0">
                <vehicle id="cfm-slow_0" pos="1.07" speed="1.45"/>
                <vehicle id="cfm-slow_1" pos="17.73" speed="1.45"/>
                <vehicle id="cfm-slow_2" pos="34.40" speed="1.45"/>
            </lane>
            <lane id="bottom_1"/>
        </edge>
        <edge id="left">
            <lane id="left_0">
                <vehicle id="cfm-fast_3" pos="1.07" speed="1.45"/>
                <vehicle id="cfm-fast_4" pos="17.73" speed="1.45"/>
                <vehicle id="cfm-fast_5" pos="34.40" speed="1.45"/>
            </lane>
            <lane id="left_1"/>
        </edge>
        <edge id="right">
            <lane id="right_0">
                <vehicle id="cfm-slow_3" pos="1.07" speed="1.45"/>
                <vehicle id="cfm-slow_4" pos="17.73" speed="1.45"/>
                <vehicle id="cfm-slow_5" pos="34.40" speed="1.45"/>
            </lane>
            <lane id="right_1"/>
        </edge>
        <edge id="top">
            <lane id="top_0">
                <vehicle id="cfm-fast_0" pos="1.07" speed="1.45"/>
                <vehicle id="cfm-fast_1" pos="17.73" speed="1.45"/>
                <vehicle id="cfm-fast_2" pos="34.40" speed="1.45"/>
            </lane>
            <lane id="top_1"/>
        </edge>
    </timestep>
    <timestep time="0.09">
        <edge id="bottom">
            <lane id="bottom_0">
                <vehicle id="cfm-slow_0" pos="1.08" speed="1.64"/>
                <vehicle id="cfm-slow_1" pos="17.75" speed="1.64"/>
                <vehicle id="cfm-slow_2" pos="34.42" speed="1.64"/>
            </lane>
            <lane id="bottom_1"/>
        </edge>
        <edge id="left">
            <lane id="left_0">
                <vehicle id="cfm-fast_3" pos="1.08" speed="1.64"/>
                <vehicle id="cfm-fast_4" pos="17.75" speed="1.64"/>
                <vehicle id="cfm-fast_5" pos="34.42" speed="1.64"/>
            </lane>
            <lane id="left_1"/>
        </edge>
        <edge id="right">
            <lane id="right_0">
                <vehicle id="cfm-slow_3" pos="1.08" speed="1.64"/>
                <vehicle id="cfm-slow_4" pos="17.75" speed="1.64"/>
                <vehicle id="cfm-slow_5" pos="34.42" speed="1.64"/>
            </lane>
            <lane id="right_1"/>
        </edge>
        <edge id="top">
            <lane id="top_0">
                <vehicle id="cfm-fast_0" pos="1.08" speed="1.64"/>
                <vehicle id="cfm-fast_1" pos="17.75" speed="1.64"/>
                <vehicle id="cfm-fast_2" pos="34.42" speed="1.64"/>
            </lane>
            <lane id="top_1"/>
        </edge>
    </timestep>
    <timestep time="0.10">
        <edge id="bottom">
            <lane id="bottom_0">
                <vehicle id="cfm-slow_0" pos="1.10" speed="1.82"/>
                <vehicle id="cfm-slow_1" pos="17.77" speed="1.82"/>
                <vehicle id="cfm-slow_2" pos="34.43" speed="1.82"/>
            </lane>
            <lane id="bottom_1"/>
        </edge>
        <edge id="left">
            <lane id="left_0">
                <vehicle id="cfm-fast_3" pos="1.10" speed="1.82"/>
                <vehicle id="cfm-fast_4" pos="17.77" speed="1.82"/>
                <vehicle id="cfm-fast_5" pos="34.43" speed="1.82"/>
            </lane>
            <lane id="left_1"/>
        </edge>
        <edge id="right">
            <lane id="right_0">
                <vehicle id="cfm-slow_3" pos="1.10" speed="1.82"/>
                <vehicle id="cfm-slow_4" pos="17.77" speed="1.82"/>
                <vehicle id="cfm-slow_5" pos="34.43" speed="1.82"/>
            </lane>
            <lane id="right_1"/>
        </edge>
        <edge id="top">
            <lane id="top_0">
                <vehicle id="cfm-fast_0" pos="1.10" speed="1.82"/>
                <vehicle id="cfm-fast_1" pos="17.77" speed="1.82"/>
                <vehicle id="cfm-fast_2" pos="34.43" speed="1.82"/>
            </lane>
            <lane id="top_1"/>
        </edge>
    </timestep>
    <timestep time="0.11">
        <edge id="bottom">
            <lane id="bottom_0">
                <vehicle id="cfm-slow_0" pos="1.12" speed="2.00"/>
                <vehicle id="cfm-slow_1" pos="17.79" speed="2.00"/>
                <vehicle id="cfm-slow_2" pos="34.45" speed="2.00"/>
            </lane>
            <lane id="bottom_1"/>
        </edge>
        <edge id="left">
            <lane id="left_0">
                <vehicle id="cfm-fast_3" pos="1.12" speed="2.00"/>
                <vehicle id="cfm-fast_4" pos="17.79" speed="2.00"/>
                <vehicle id="cfm-fast_5" pos="34.45" speed="2.00"/>
            </lane>
            <lane id="left_1"/>
        </edge>
        <edge id="right">
            <lane id="right_0">
                <vehicle id="cfm-slow_3" pos="1.12" speed="2.00"/>
                <vehicle id="cfm-slow_4" pos="17.79" speed="2.00"/>
                <vehicle id="cfm-slow_5" pos="34.45" speed="2.00"/>
            </lane>
            <lane id="right_1"/>
        </edge>
        <edge id="top">
            <lane id="top_0">
                <vehicle id="cfm-fast_0" pos="1.12" speed="2.00"/>
                <vehicle id="cfm-fast_1" pos="17.79" speed="2.00"/>
                <vehicle id="cfm-fast_2" pos="34.45" speed="2.00"/>
            </lane>
            <lane id="top_1"/>
        </edge>
    </timestep>
    <timestep time="0.12">
        <edge id="bottom">
            <lane id="bottom_0">
                <vehicle id="cfm-slow_0" pos="1.14" speed="2.18"/>
                <vehicle id="cfm-slow_1" pos="17.81" speed="2.18"/>
                <vehicle id="cfm-slow_2" pos="34.48" speed="2.18"/>
            </lane>
            <lane id="bottom_1"/>
        </edge>
        <edge id="left">
            <lane id="left_0">
                <vehicle id="cfm-fast_3" pos="1.14" speed="2.18"/>
                <vehicle id="cfm-fast_4" pos="17.81" speed="2.18"/>
                <vehicle id="cfm-fast_5" pos="34.48" speed="2.18"/>
            </lane>
            <lane id="left_1"/>
        </edge>
        <edge id="right">
            <lane id="right_0">
                <vehicle id="cfm-slow_3" pos="1.14" speed="2.18"/>
                <vehicle id="cfm-slow_4" pos="17.81" speed="2.18"/>
                <vehicle id="cfm-slow_5" pos="34.48" speed="2.18"/>
            </lane>
            <lane id="right_1"/>
        </edge>
        <edge id="top">
            <lane id="top_0">
                <vehicle id="cfm-fast_0" pos="1.14" speed="2.18"/>
                <vehicle id="cfm-fast_1" pos="17.81" speed="2.18"/>
                <vehicle id="cfm-fast_2" pos="34.48" speed="2.18"/>
            </lane>
            <lane id="top_1"/>
        </edge>
    </timestep>
    <timestep time="0.13">
        <edge id="bottom">
            <lane id="bottom_0">
                <vehicle id="cfm-slow_0" pos="1.17" speed="2.35"/>
                <vehicle id="cfm-slow_1" pos="17.83" speed="2.35"/>
                <vehicle id="cfm-slow_2" pos="34.50" speed="2.35"/>
            </lane>
            <lane id="bottom_1"/>
        </edge>
        <edge id="left">
            <lane id="left_0">
                <vehicle id="cfm-fast_3" pos="1.17" speed="2.36"/>
                <vehicle id="cfm-fast_4" pos="17.83" speed="2.36"/>
                <vehicle id="cfm-fast_5" pos="34.50" speed="2.36"/>
            </lane>
            <lane id="left_1"/>
        </edge>
        <edge id="right">
            <lane id="right_0">
                <vehicle id="cfm-slow_3" pos="1.17" speed="2.35"/>
                <vehicle id="cfm-slow_4" pos="17.83" speed="2.35"/>
                <vehicle id="cfm-slow_5" pos="34.50" speed="2.35"/>
            </lane>
            <lane id="right_1"/>
        </edge>
        <edge id="top">
            <lane id="top_0">
                <vehicle id="cfm-fast_0" pos="1.17" speed="2.36"/>
                <vehicle id="cfm-fast_1" pos="17.83" speed="2.36"/>
                <vehicle id="cfm-fast_2" pos="34.50" speed="2.36"/>
            </lane>
            <lane id="top_1"/>
        </edge>
    </timestep>
    <timestep time="0.14">
        <edge id="bottom">
            <lane id="bottom_0">
                <vehicle id="cfm-slow_0" pos="1.19" speed="2.53"/>
                <vehicle id="cfm-slow_1" pos="17.86" speed="2.53"/>
                <vehicle id="cfm-slow_2" pos="34.52" speed="2.53"/>
            </lane>
            <lane id="bottom_1"/>
        </edge>
        <edge id="left">
            <lane id="left_0">
                <vehicle id="cfm-fast_3" pos="1.19" speed="2.55"/>
                <vehicle id="cfm-fast_4" pos="17.86" speed="2.55"/>
                <vehicle id="cfm-fast_5" pos="34.52" speed="2.55"/>
            </lane>
            <lane id="left_1"/>
        </edge>
        <edge id="right">
            <lane id="right_0">
                <vehicle id="cfm-slow_3" pos="1.19" speed="2.53"/>
                <vehicle id="cfm-slow_4" pos="17.86" speed="2.53"/>
                <vehicle id="cfm-slow_5" pos="34.52" speed="2.53"/>
            </lane>
            <lane id="right_1"/>
        </edge>
        <edge id="top">
            <lane id="top_0">
                <vehicle id="cfm-fast_0" pos="1.19" speed="2.55"/>
                <vehicle id="cfm-fast_1" pos="17.86" speed="2.55"/>
                <vehicle id="cfm-fast_2" pos="34.52" speed="2.55"/>
            </lane>
            <lane id="top_1"/>
        </edge>
    </timestep>
    <timestep time="0.15">
        <edge id="bottom">
            <lane id="bottom_0">
                <vehicle id="cfm-slow_0" pos="1.22" speed="2.70"/>
                <vehicle id="cfm-slow_1" pos="17.88" speed="2.70"/>
                <vehicle id="cfm-slow_2" pos="34.55" speed="2.70"/>
            </lane>
            <lane id="bottom_1"/>
        </edge>
        <edge id="left">
            <lane id="left_0">
                <vehicle id="cfm-fast_3" pos="1.22" speed="2.73"/>
                <vehicle id="cfm-fast_4" pos="17.88" speed="2.73"/>
                <vehicle id="cfm-fast_5" pos="34.55" speed="2.73"/>
            </lane>
            <lane id="left_1"/>
        </edge>
        <edge id="right">
            <lane id="right_0">
                <vehicle id="cfm-slow_3" pos="1.22" speed="2.70"/>
                <vehicle id="cfm-slow_4" pos="17.88" speed="2.70"/>
                <vehicle id="cfm-slow_5" pos="34.55" speed="2.70"/>
            </lane>
            <lane id="right_1"/>
        </edge>
        <edge id="top">
            <lane id="top_0">
                <vehicle id="cfm-fast_0" pos="1.22" speed="2.73"/>
                <vehicle id="cfm-fast_1" pos="17.88" speed="2.73"/>
                <vehicle id="cfm-fast_2" pos="34.55" speed="2.73"/>
            </lane>
            <lane id="top_1"/>
        </edge>
    </timestep>
    <timestep time="0.16">
        <edge id="bottom">
            <lane id="bottom_0">
                <vehicle id="cfm-slow_0" pos="1.25" speed="2.88"/>
                <vehicle id="cfm-slow_1" pos="17.91" speed="2.88"/>
                <vehicle id="cfm-slow_2" pos="34.58" speed="2.88"/>
            </lane>
            <lane id="bottom_1"/>
        </edge>
        <edge id="left">
            <lane id="left_0">
                <vehicle id="cfm-fast_3" pos="1.25" speed="2.91"/>
                <vehicle id="cfm-fast_4" pos="17.91" speed="2.91"/>
                <vehicle id="cfm-fast_5" pos="34.58" speed="2.91"/>
            </lane>
            <lane id="left_1"/>
        </edge>
        <edge id="right">
            <lane id="right_0">
                <vehicle id="cfm-slow_3" pos="1.25" speed="2.88"/>
                <vehicle id="cfm-slow_4" pos="17.91" speed="2.88"/>
                <vehicle id="cfm-slow_5" pos="34.58" speed="2.88"/>
            </lane>
            <lane id="right_1"/>
        </edge>
        <edge id="top">
            <lane id="top_0">
                <vehicle id="cfm-fast_0" pos="1.25" speed="2.91"/>
                <vehicle id="cfm-fast_1" pos="17.91" speed="2.91"/>
                <vehicle id="cfm-fast_2" pos="34.58" speed="2.91"/>
            </lane>
            <lane id="top_1"/>
        </edge>
    </timestep>
    <timestep time="0.17">
        <edge id="bottom">
            <lane id="bottom_0">
                <vehicle id="cfm-slow_0" pos="1.28" speed="3.05"/>
                <vehicle id="cfm-slow_1" pos="17.94" speed="3.05"/>
                <vehicle id="cfm-slow_2" pos="34.61" speed="3.05"/>
            </lane>
            <lane id="bottom_1"/>
        </edge>
        <edge id="left">
            <lane id="left_0">
                <vehicle id="cfm-fast_3" pos="1.28" speed="3.09"/>
                <vehicle id="cfm-fast_4" pos="17.94" speed="3.09"/>
                <vehicle id="cfm-fast_5" pos="34.61" speed="3.09"/>
            </lane>
            <lane id="left_1"/>
        </edge>
        <edge id="right">
            <lane id="right_0">
                <vehicle id="cfm-slow_3" pos="1.28" speed="3.05"/>
                <vehicle id="cfm-slow_4" pos="17.94" speed="3.05"/>
                <vehicle id="cfm-slow_5" pos="34.61" speed="3.05"/>
            </lane>
            <lane id="right_1"/>
        </edge>
        <edge id="top">
            <lane id="top_0">
                <vehicle id="cfm-fast_0" pos="1.28" speed="3.09"/>
                <vehicle id="cfm-fast_1" pos="17.94" speed="3.09"/>
                <vehicle id="cfm-fast_2" pos="34.61" speed="3.09"/>
            </lane>
            <lane id="top_1"/>
        </edge>
    </timestep>
    <timestep time="0.18">
        <edge id="bottom">
            <lane id="bottom_0">
                <vehicle id="cfm-slow_0" pos="1.31" speed="3.22"/>
                <vehicle id="cfm-slow_1" pos="17.98" speed="3.22"/>
                <vehicle id="cfm-slow_2" pos="34.64" speed="3.22"/>
            </lane>
            <lane id="bottom_1"/>
        </edge>
        <edge id="left">
            <lane id="left_0">
                <vehicle id="cfm-fast_3" pos="1.31" speed="3.27"/>
                <vehicle id="cfm-fast_4" pos="17.98" speed="3.27"/>
                <vehicle id="cfm-fast_5" pos="34.64" speed="3.27"/>
            </lane>
            <lane id="left_1"/>
        </edge>
        <edge id="right">
            <lane id="right_0">
                <vehicle id="cfm-slow_3" pos="1.31" speed="3.22"/>
                <vehicle id="cfm-slow_4" pos="17.98" speed="3.22"/>
                <vehicle id="cfm-slow_5" pos="34.64" speed="3.22"/>
            </lane>
            <lane id="right_1"/>
        </edge>
        <edge id="top">
            <lane id="top_0">
                <vehicle id="cfm-fast_0" pos="1.31" speed="3.27"/>
                <vehicle id="cfm-fast_1" pos="17.98" speed="3.27"/>
                <vehicle id="cfm-fast_2" pos="34.64" speed="3.27"/>
            </lane>
            <lane id="top_1"/>
        </edge>
    </timestep>
    <timestep time="0.19">
        <edge id="bottom">
            <lane id="bottom_0">
                <vehicle id="cfm-slow_0" pos="1.34" speed="3.38"/>
                <vehicle id="cfm-slow_1" pos="18.01" speed="3.38"/>
                <vehicle id="cfm-slow_2" pos="34.68" speed="3.38"/>
            </lane>
            <lane id="bottom_1"/>
        </edge>
        <edge id="left">
            <lane id="left_0">
                <vehicle id="cfm-fast_3" pos="1.35" speed="3.45"/>
                <vehicle id="cfm-fast_4" pos="18.01" speed="3.45"/>
                <vehicle id="cfm-fast_5" pos="34.68" speed="3.45"/>
            </lane>
            <lane id="left_1"/>
        </edge>
        <edge id="right">
            <lane id="right_0">
                <vehicle id="cfm-slow_3" pos="1.34" speed="3.38"/>
                <vehicle id="cfm-slow_4" pos="18.01" speed="3.38"/>
                <vehicle id="cfm-slow_5" pos="34.68" speed="3.39"/>
            </lane>
            <lane id="right_1"/>
        </edge>
        <edge id="top">
            <lane id="top_0">
                <vehicle id="cfm-fast_0" pos="1.35" speed="3.45"/>
                <vehicle id="cfm-fast_1" pos="18.01" speed="3.45"/>
                <vehicle id="cfm-fast_2" pos="34.68" speed="3.45"/>
            </lane>
            <lane id="top_1"/>
        </edge>
    </timestep>
    <timestep time="0.20">
        <edge id="bottom">
            <lane id="bottom_0">
                <vehicle id="cfm-slow_0" pos="1.38" speed="3.55"/>
                <vehicle id="cfm-slow_1" pos="18.05" speed="3.55"/>
                <vehicle id="cfm-slow_2" pos="34.71" speed="3.55"/>
            </lane>
            <lane id="bottom_1"/>
        </edge>
        <edge id="left">
            <lane id="left_0">
                <vehicle id="cfm-fast_3" pos="1.38" speed="3.64"/>
                <vehicle id="cfm-fast_4" pos="18.05" speed="3.64"/>
                <vehicle id="cfm-fast_5" pos="34.72" speed="3.64"/>
            </lane>
            <lane id="left_1"/>
        </edge>
        <edge id="right">
            <lane id="right_0">
                <vehicle id="cfm-slow_3" pos="1.38" speed="3.55"/>
                <vehicle id="cfm-slow_4" pos="18.05" speed="3.55"/>
                <vehicle id="cfm-slow_5" pos="34.71" speed="3.55"/>
            </lane>
            <lane id="right_1"/>
        </edge>
        <edge id="top">
            <lane id="top_0">
                <vehicle id="cfm-fast_0" pos="1.38" speed="3.64"/>
                <vehicle id="cfm-fast_1" pos="18.05" speed="3.64"/>
                <vehicle id="cfm-fast_2" pos="34.72" speed="3.64"/>
            </lane>
            <lane id="top_1"/>