<?xml version="1.0" encoding="UTF-8"?>

<!-- generated on Mon Feb 27 13:04:32 2017 by SUMO Version 0.29.0
<?xml version="1.0" encoding="UTF-8"?>

<configuration xmlns:xsi="http://www.w3.org/2001/XMLSchema-instance" xsi:noNamespaceSchemaLocation="http://sumo.dlr.de/xsd/sumoConfiguration.xsd">

    <input>
        <net-file value="tests/debug/cfg/test-single-lane-one-controller-200m1l.net.xml"/>
        <route-files value="tests/debug/cfg/test-single-lane-one-controller-200m1l.rou.xml"/>
        <additional-files value="tests/debug/cfg/test-single-lane-one-controller-200m1l.add.xml"/>
    </input>

    <output>
        <netstate-dump value="tests/debug/cfg/data/test-single-lane-one-controller-200m1l.netstate.xml"/>
        <emission-output value="tests/debug/cfg/data/test-single-lane-one-controller-200m1l.emission.xml"/>
        <amitran-output value="tests/debug/cfg/data/test-single-lane-one-controller-200m1l.amitran.xml"/>
        <lanechange-output value="tests/debug/cfg/data/test-single-lane-one-controller-200m1l.lanechange.xml"/>
    </output>

    <time>
        <begin value="0"/>
        <end value="1000"/>
        <step-length value="0.01"/>
    </time>

    <traci_server>
        <remote-port value="8873"/>
    </traci_server>

    <gui_only>
        <gui-settings-file value="tests/debug/cfg/test-single-lane-one-controller-200m1l.gui.cfg"/>
    </gui_only>

</configuration>
-->

<netstate xmlns:xsi="http://www.w3.org/2001/XMLSchema-instance" xsi:noNamespaceSchemaLocation="http://sumo.dlr.de/xsd/netstate_file.xsd">
    <timestep time="0.00">
        <edge id="bottom">
            <lane id="bottom_0">
                <vehicle id="cfm_slow_0" pos="1.00" speed="0.00"/>
                <vehicle id="cfm_slow_1" pos="39.00" speed="0.00"/>
            </lane>
        </edge>
        <edge id="left">
            <lane id="left_0">
                <vehicle id="cfm_slow_4" pos="3.00" speed="0.00"/>
            </lane>
        </edge>
        <edge id="right">
            <lane id="right_0">
                <vehicle id="cfm_slow_2" pos="27.00" speed="0.00"/>
            </lane>
        </edge>
        <edge id="top">
            <lane id="top_0">
                <vehicle id="cfm_slow_3" pos="15.00" speed="0.00"/>
            </lane>
        </edge>
    </timestep>
    <timestep time="0.01">
        <edge id="bottom">
            <lane id="bottom_0">
                <vehicle id="cfm_slow_0" pos="1.00" speed="0.14"/>
                <vehicle id="cfm_slow_1" pos="39.00" speed="0.14"/>
            </lane>
        </edge>
        <edge id="left">
            <lane id="left_0">
                <vehicle id="cfm_slow_4" pos="3.00" speed="0.14"/>
            </lane>
        </edge>
        <edge id="right">
            <lane id="right_0">
                <vehicle id="cfm_slow_2" pos="27.00" speed="0.14"/>
            </lane>
        </edge>
        <edge id="top">
            <lane id="top_0">
                <vehicle id="cfm_slow_3" pos="15.00" speed="0.14"/>
            </lane>
        </edge>
    </timestep>
    <timestep time="0.02">
        <edge id="bottom">
            <lane id="bottom_0">
                <vehicle id="cfm_slow_0" pos="1.00" speed="0.27"/>
                <vehicle id="cfm_slow_1" pos="39.00" speed="0.27"/>
            </lane>
        </edge>
        <edge id="left">
            <lane id="left_0">
                <vehicle id="cfm_slow_4" pos="3.00" speed="0.27"/>
            </lane>
        </edge>
        <edge id="right">
            <lane id="right_0">
                <vehicle id="cfm_slow_2" pos="27.00" speed="0.27"/>
            </lane>
        </edge>
        <edge id="top">
            <lane id="top_0">
                <vehicle id="cfm_slow_3" pos="15.00" speed="0.27"/>
            </lane>
        </edge>
    </timestep>
    <timestep time="0.03">
        <edge id="bottom">
            <lane id="bottom_0">
                <vehicle id="cfm_slow_0" pos="1.01" speed="0.41"/>
                <vehicle id="cfm_slow_1" pos="39.01" speed="0.41"/>
            </lane>
        </edge>
        <edge id="left">
            <lane id="left_0">
                <vehicle id="cfm_slow_4" pos="3.01" speed="0.41"/>
            </lane>
        </edge>
        <edge id="right">
            <lane id="right_0">
                <vehicle id="cfm_slow_2" pos="27.01" speed="0.41"/>
            </lane>
        </edge>
        <edge id="top">
            <lane id="top_0">
                <vehicle id="cfm_slow_3" pos="15.01" speed="0.41"/>
            </lane>
        </edge>
    </timestep>
    <timestep time="0.04">
        <edge id="bottom">
            <lane id="bottom_0">
                <vehicle id="cfm_slow_0" pos="1.01" speed="0.55"/>
                <vehicle id="cfm_slow_1" pos="39.01" speed="0.55"/>
            </lane>
        </edge>
        <edge id="left">
            <lane id="left_0">
                <vehicle id="cfm_slow_4" pos="3.01" speed="0.55"/>
            </lane>
        </edge>
        <edge id="right">
            <lane id="right_0">
                <vehicle id="cfm_slow_2" pos="27.01" speed="0.55"/>
            </lane>
        </edge>
        <edge id="top">
            <lane id="top_0">
                <vehicle id="cfm_slow_3" pos="15.01" speed="0.55"/>
            </lane>
        </edge>
    </timestep>
    <timestep time="0.05">
        <edge id="bottom">
            <lane id="bottom_0">
                <vehicle id="cfm_slow_0" pos="1.02" speed="0.68"/>
                <vehicle id="cfm_slow_1" pos="39.02" speed="0.68"/>
            </lane>
        </edge>
        <edge id="left">
            <lane id="left_0">
                <vehicle id="cfm_slow_4" pos="3.02" speed="0.68"/>
            </lane>
        </edge>
        <edge id="right">
            <lane id="right_0">
                <vehicle id="cfm_slow_2" pos="27.02" speed="0.68"/>
            </lane>
        </edge>
        <edge id="top">
            <lane id="top_0">
                <vehicle id="cfm_slow_3" pos="15.02" speed="0.68"/>
            </lane>
        </edge>
    </timestep>
    <timestep time="0.06">
        <edge id="bottom">
            <lane id="bottom_0">
                <vehicle id="cfm_slow_0" pos="1.03" speed="0.82"/>
                <vehicle id="cfm_slow_1" pos="39.03" speed="0.82"/>
            </lane>
        </edge>
        <edge id="left">
            <lane id="left_0">
                <vehicle id="cfm_slow_4" pos="3.03" speed="0.82"/>
            </lane>
        </edge>
        <edge id="right">
            <lane id="right_0">
                <vehicle id="cfm_slow_2" pos="27.03" speed="0.82"/>
            </lane>
        </edge>
        <edge id="top">
            <lane id="top_0">
                <vehicle id="cfm_slow_3" pos="15.03" speed="0.82"/>
            </lane>
        </edge>
    </timestep>
    <timestep time="0.07">
        <edge id="bottom">
            <lane id="bottom_0">
                <vehicle id="cfm_slow_0" pos="1.04" speed="0.95"/>
                <vehicle id="cfm_slow_1" pos="39.04" speed="0.95"/>
            </lane>
        </edge>
        <edge id="left">
            <lane id="left_0">
                <vehicle id="cfm_slow_4" pos="3.04" speed="0.95"/>
            </lane>
        </edge>
        <edge id="right">
            <lane id="right_0">
                <vehicle id="cfm_slow_2" pos="27.04" speed="0.95"/>
            </lane>
        </edge>
        <edge id="top">
            <lane id="top_0">
                <vehicle id="cfm_slow_3" pos="15.04" speed="0.95"/>
            </lane>
        </edge>
    </timestep>
    <timestep time="0.08">
        <edge id="bottom">
            <lane id="bottom_0">
                <vehicle id="cfm_slow_0" pos="1.05" speed="1.09"/>
                <vehicle id="cfm_slow_1" pos="39.05" speed="1.09"/>
            </lane>
        </edge>
        <edge id="left">
            <lane id="left_0">
                <vehicle id="cfm_slow_4" pos="3.05" speed="1.09"/>
            </lane>
        </edge>
        <edge id="right">
            <lane id="right_0">
                <vehicle id="cfm_slow_2" pos="27.05" speed="1.09"/>
            </lane>
        </edge>
        <edge id="top">
            <lane id="top_0">
                <vehicle id="cfm_slow_3" pos="15.05" speed="1.09"/>
            </lane>
        </edge>
    </timestep>
    <timestep time="0.09">
        <edge id="bottom">
            <lane id="bottom_0">
                <vehicle id="cfm_slow_0" pos="1.06" speed="1.23"/>
                <vehicle id="cfm_slow_1" pos="39.06" speed="1.23"/>
            </lane>
        </edge>
        <edge id="left">
            <lane id="left_0">
                <vehicle id="cfm_slow_4" pos="3.06" speed="1.23"/>
            </lane>
        </edge>
        <edge id="right">
            <lane id="right_0">
                <vehicle id="cfm_slow_2" pos="27.06" speed="1.23"/>
            </lane>
        </edge>
        <edge id="top">
            <lane id="top_0">
                <vehicle id="cfm_slow_3" pos="15.06" speed="1.23"/>
            </lane>
        </edge>
    </timestep>
    <timestep time="0.10">
        <edge id="bottom">
            <lane id="bottom_0">
                <vehicle id="cfm_slow_0" pos="1.08" speed="1.36"/>
                <vehicle id="cfm_slow_1" pos="39.08" speed="1.36"/>
            </lane>
        </edge>
        <edge id="left">
            <lane id="left_0">
                <vehicle id="cfm_slow_4" pos="3.08" speed="1.36"/>
            </lane>
        </edge>
        <edge id="right">
            <lane id="right_0">
                <vehicle id="cfm_slow_2" pos="27.07" speed="1.36"/>
            </lane>
        </edge>
        <edge id="top">
            <lane id="top_0">
                <vehicle id="cfm_slow_3" pos="15.07" speed="1.36"/>
            </lane>
        </edge>
    </timestep>
    <timestep time="0.11">
        <edge id="bottom">
            <lane id="bottom_0">
                <vehicle id="cfm_slow_0" pos="1.09" speed="1.50"/>
                <vehicle id="cfm_slow_1" pos="39.09" speed="1.50"/>
            </lane>
        </edge>
        <edge id="left">
            <lane id="left_0">
                <vehicle id="cfm_slow_4" pos="3.09" speed="1.50"/>
            </lane>
        </edge>
        <edge id="right">
            <lane id="right_0">
                <vehicle id="cfm_slow_2" pos="27.09" speed="1.50"/>
            </lane>
        </edge>
        <edge id="top">
            <lane id="top_0">
                <vehicle id="cfm_slow_3" pos="15.09" speed="1.50"/>
            </lane>
        </edge>
    </timestep>
    <timestep time="0.12">
        <edge id="bottom">
            <lane id="bottom_0">
                <vehicle id="cfm_slow_0" pos="1.11" speed="1.64"/>
                <vehicle id="cfm_slow_1" pos="39.11" speed="1.64"/>
            </lane>
        </edge>
        <edge id="left">
            <lane id="left_0">
                <vehicle id="cfm_slow_4" pos="3.11" speed="1.64"/>
            </lane>
        </edge>
        <edge id="right">
            <lane id="right_0">
                <vehicle id="cfm_slow_2" pos="27.11" speed="1.64"/>
            </lane>
        </edge>
        <edge id="top">
            <lane id="top_0">
                <vehicle id="cfm_slow_3" pos="15.11" speed="1.64"/>
            </lane>
        </edge>
    </timestep>
    <timestep time="0.13">
        <edge id="bottom">
            <lane id="bottom_0">
                <vehicle id="cfm_slow_0" pos="1.12" speed="1.77"/>
                <vehicle id="cfm_slow_1" pos="39.12" speed="1.77"/>
            </lane>
        </edge>
        <edge id="left">
            <lane id="left_0">
                <vehicle id="cfm_slow_4" pos="3.12" speed="1.77"/>
            </lane>
        </edge>
        <edge id="right">
            <lane id="right_0">
                <vehicle id="cfm_slow_2" pos="27.12" speed="1.77"/>
            </lane>
        </edge>
        <edge id="top">
            <lane id="top_0">
                <vehicle id="cfm_slow_3" pos="15.12" speed="1.77"/>
            </lane>
        </edge>
    </timestep>
    <timestep time="0.14">
        <edge id="bottom">
            <lane id="bottom_0">
                <vehicle id="cfm_slow_0" pos="1.14" speed="1.91"/>
                <vehicle id="cfm_slow_1" pos="39.14" speed="1.91"/>
            </lane>
        </edge>
        <edge id="left">
            <lane id="left_0">
                <vehicle id="cfm_slow_4" pos="3.14" speed="1.91"/>
            </lane>
        </edge>
        <edge id="right">
            <lane id="right_0">
                <vehicle id="cfm_slow_2" pos="27.14" speed="1.91"/>
            </lane>
        </edge>
        <edge id="top">
            <lane id="top_0">
                <vehicle id="cfm_slow_3" pos="15.14" speed="1.91"/>
            </lane>
        </edge>
    </timestep>
    <timestep time="0.15">
        <edge id="bottom">
            <lane id="bottom_0">
                <vehicle id="cfm_slow_0" pos="1.16" speed="2.05"/>
                <vehicle id="cfm_slow_1" pos="39.16" speed="2.05"/>
            </lane>
        </edge>
        <edge id="left">
            <lane id="left_0">
                <vehicle id="cfm_slow_4" pos="3.16" speed="2.05"/>
            </lane>
        </edge>
        <edge id="right">
            <lane id="right_0">
                <vehicle id="cfm_slow_2" pos="27.16" speed="2.05"/>
            </lane>
        </edge>
        <edge id="top">
            <lane id="top_0">
                <vehicle id="cfm_slow_3" pos="15.16" speed="2.05"/>
            </lane>
        </edge>
    </timestep>
    <timestep time="0.16">
        <edge id="bottom">
            <lane id="bottom_0">
                <vehicle id="cfm_slow_0" pos="1.19" speed="2.18"/>
                <vehicle id="cfm_slow_1" pos="39.19" speed="2.18"/>
            </lane>
        </edge>
        <edge id="left">
            <lane id="left_0">
                <vehicle id="cfm_slow_4" pos="3.19" speed="2.18"/>
            </lane>
        </edge>
        <edge id="right">
            <lane id="right_0">
                <vehicle id="cfm_slow_2" pos="27.19" speed="2.18"/>
            </lane>
        </edge>
        <edge id="top">
            <lane id="top_0">
                <vehicle id="cfm_slow_3" pos="15.19" speed="2.18"/>
            </lane>
        </edge>
    </timestep>
    <timestep time="0.17">
        <edge id="bottom">
            <lane id="bottom_0">
                <vehicle id="cfm_slow_0" pos="1.21" speed="2.32"/>
                <vehicle id="cfm_slow_1" pos="39.21" speed="2.32"/>
            </lane>
        </edge>
        <edge id="left">
            <lane id="left_0">
                <vehicle id="cfm_slow_4" pos="3.21" speed="2.32"/>
            </lane>
        </edge>
        <edge id="right">
            <lane id="right_0">
                <vehicle id="cfm_slow_2" pos="27.21" speed="2.32"/>
            </lane>
        </edge>
        <edge id="top">
            <lane id="top_0">
                <vehicle id="cfm_slow_3" pos="15.21" speed="2.32"/>
            </lane>
        </edge>
    </timestep>
    <timestep time="0.18">
        <edge id="bottom">
            <lane id="bottom_0">
                <vehicle id="cfm_slow_0" pos="1.23" speed="2.45"/>
                <vehicle id="cfm_slow_1" pos="39.23" speed="2.45"/>
            </lane>
        </edge>
        <edge id="left">
            <lane id="left_0">
                <vehicle id="cfm_slow_4" pos="3.23" speed="2.45"/>
            </lane>
        </edge>
        <edge id="right">
            <lane id="right_0">
                <vehicle id="cfm_slow_2" pos="27.23" speed="2.45"/>
            </lane>
        </edge>
        <edge id="top">
            <lane id="top_0">
                <vehicle id="cfm_slow_3" pos="15.23" speed="2.45"/>
            </lane>
        </edge>
    </timestep>
    <timestep time="0.19">
        <edge id="bottom">
            <lane id="bottom_0">
                <vehicle id="cfm_slow_0" pos="1.26" speed="2.59"/>
                <vehicle id="cfm_slow_1" pos="39.26" speed="2.59"/>
            </lane>
        </edge>
        <edge id="left">
            <lane id="left_0">
                <vehicle id="cfm_slow_4" pos="3.26" speed="2.59"/>
            </lane>
        </edge>
        <edge id="right">
            <lane id="right_0">
                <vehicle id="cfm_slow_2" pos="27.26" speed="2.59"/>
            </lane>
        </edge>
        <edge id="top">
            <lane id="top_0">
                <vehicle id="cfm_slow_3" pos="15.26" speed="2.59"/>
            </lane>
        </edge>
    </timestep>
    <timestep time="0.20">
        <edge id="bottom">
            <lane id="bottom_0">
                <vehicle id="cfm_slow_0" pos="1.29" speed="2.73"/>
                <vehicle id="cfm_slow_1" pos="39.29" speed="2.73"/>
            </lane>
        </edge>
        <edge id="left">
            <lane id="left_0">
                <vehicle id="cfm_slow_4" pos="3.29" speed="2.73"/>
            </lane>
        </edge>
        <edge id="right">
            <lane id="right_0">
                <vehicle id="cfm_slow_2" pos="27.29" speed="2.73"/>
            </lane>
        </edge>
        <edge id="top">
            <lane id="top_0">
                <vehicle id="cfm_slow_3" pos="15.29" speed="2.73"/>
            </lane>
        </edge>
    </timestep>
    <timestep time="0.21">
        <edge id="bottom">
            <lane id="bottom_0">
                <vehicle id="cfm_slow_0" pos="1.32" speed="2.86"/>
                <vehicle id="cfm_slow_1" pos="39.31" speed="2.86"/>
            </lane>
        </edge>
        <edge id="left">
            <lane id="left_0">
                <vehicle id="cfm_slow_4" pos="3.32" speed="2.86"/>
            </lane>
        </edge>
        <edge id="right">
            <lane id="right_0">
                <vehicle id="cfm_slow_2" pos="27.31" speed="2.86"/>
            </lane>
        </edge>
        <edge id="top">
            <lane id="top_0">
                <vehicle id="cfm_slow_3" pos="15.31" speed="2.86"/>
            </lane>
        </edge>
    </timestep>
    <timestep time="0.22">
        <edge id="bottom">
            <lane id="bottom_0">
                <vehicle id="cfm_slow_0" pos="1.35" speed="3.00"/>
                <vehicle id="cfm_slow_1" pos="39.34" speed="3.00"/>
            </lane>
        </edge>
        <edge id="left">
            <lane id="left_0">
                <vehicle id="cfm_slow_4" pos="3.35" speed="3.00"/>
            </lane>
        </edge>
        <edge id="right">
            <lane id="right_0">
                <vehicle id="cfm_slow_2" pos="27.34" speed="3.00"/>
            </lane>
        </edge>
        <edge id="top">
            <lane id="top_0">
                <vehicle id="cfm_slow_3" pos="15.34" speed="3.00"/>
            </lane>
        </edge>
    </timestep>
    <timestep time="0.23">
        <edge id="bottom">
            <lane id="bottom_0">
                <vehicle id="cfm_slow_0" pos="1.38" speed="3.14"/>
                <vehicle id="cfm_slow_1" pos="39.38" speed="3.14"/>
            </lane>
        </edge>
        <edge id="left">
            <lane id="left_0">
                <vehicle id="cfm_slow_4" pos="3.38" speed="3.14"/>
            </lane>
        </edge>
        <edge id="right">
            <lane id="right_0">
                <vehicle id="cfm_slow_2" pos="27.38" speed="3.14"/>
            </lane>
        </edge>
        <edge id="top">
            <lane id="top_0">
                <vehicle id="cfm_slow_3" pos="15.38" speed="3.14"/>
            </lane>
        </edge>
    </timestep>
    <timestep time="0.24">
        <edge id="bottom">
            <lane id="bottom_0">
                <vehicle id="cfm_slow_0" pos="1.41" speed="3.27"/>
                <vehicle id="cfm_slow_1" pos="39.41" speed="3.27"/>
            </lane>
        </edge>
        <edge id="left">
            <lane id="left_0">
                <vehicle id="cfm_slow_4" pos="3.41" speed="3.27"/>
            </lane>
        </edge>
        <edge id="right">
            <lane id="right_0">
                <vehicle id="cfm_slow_2" pos="27.41" speed="3.27"/>
            </lane>
        </edge>
        <edge id="top">
            <lane id="top_0">
                <vehicle id="cfm_slow_3" pos="15.41" speed="3.27"/>
            </lane>
        </edge>
    </timestep>
    <timestep time="0.25">
        <edge id="bottom">
            <lane id="bottom_0">
                <vehicle id="cfm_slow_0" pos="1.44" speed="3.41"/>
                <vehicle id="cfm_slow_1" pos="39.44" speed="3.41"/>
            </lane>
        </edge>
        <edge id="left">
            <lane id="left_0">
                <vehicle id="cfm_slow_4" pos="3.44" speed="3.41"/>
            </lane>
        </edge>
        <edge id="right">
            <lane id="right_0">
                <vehicle id="cfm_slow_2" pos="27.44" speed="3.41"/>
            </lane>
        </edge>
        <edge id="top">
            <lane id="top_0">
                <vehicle id="cfm_slow_3" pos="15.44" speed="3.41"/>
            </lane>
        </edge>
    </timestep>
    <timestep time="0.26">
        <edge id="bottom">
            <lane id="bottom_0">
                <vehicle id="cfm_slow_0" pos="1.48" speed="3.55"/>
                <vehicle id="cfm_slow_1" pos="39.48" speed="3.55"/>
            </lane>
        </edge>
        <edge id="left">
            <lane id="left_0">
                <vehicle id="cfm_slow_4" pos="3.48" speed="3.55"/>
            </lane>
        </edge>
        <edge id="right">
            <lane id="right_0">
                <vehicle id="cfm_slow_2" pos="27.48" speed="3.55"/>
            </lane>
        </edge>
        <edge id="top">
            <lane id="top_0">
                <vehicle id="cfm_slow_3" pos="15.48" speed="3.55"/>
            </lane>
        </edge>
    </timestep>
    <timestep time="0.27">
        <edge id="bottom">
            <lane id="bottom_0">
                <vehicle id="cfm_slow_0" pos="1.52" speed="3.68"/>
                <vehicle id="cfm_slow_1" pos="39.52" speed="3.68"/>
            </lane>
        </edge>
        <edge id="left">
            <lane id="left_0">
                <vehicle id="cfm_slow_4" pos="3.52" speed="3.68"/>
            </lane>
        </edge>
        <edge id="right">
            <lane id="right_0">
                <vehicle id="cfm_slow_2" pos="27.52" speed="3.68"/>
            </lane>
        </edge>
        <edge id="top">
            <lane id="top_0">
                <vehicle id="cfm_slow_3" pos="15.52" speed="3.68"/>
            </lane>
        </edge>
    </timestep>
    <timestep time="0.28">
        <edge id="bottom">
            <lane id="bottom_0">
                <vehicle id="cfm_slow_0" pos="1.55" speed="3.82"/>
                <vehicle id="cfm_slow_1" pos="39.55" speed="3.82"/>
            </lane>
        </edge>
        <edge id="left">
            <lane id="left_0">
                <vehicle id="cfm_slow_4" pos="3.55" speed="3.82"/>
            </lane>
        </edge>
        <edge id="right">
            <lane id="right_0">
                <vehicle id="cfm_slow_2" pos="27.55" speed="3.82"/>
            </lane>
        </edge>
        <edge id="top">
            <lane id="top_0">
                <vehicle id="cfm_slow_3" pos="15.55" speed="3.82"/>
            </lane>
        </edge>
    </timestep>
    <timestep time="0.29">
        <edge id="bottom">
            <lane id="bottom_0">
                <vehicle id="cfm_slow_0" pos="1.59" speed="3.95"/>
                <vehicle id="cfm_slow_1" pos="39.59" speed="3.95"/>
            </lane>
        </edge>
        <edge id="left">
            <lane id="left_0">
                <vehicle id="cfm_slow_4" pos="3.59" speed="3.95"/>
            </lane>
        </edge>
        <edge id="right">
            <lane id="right_0">
                <vehicle id="cfm_slow_2" pos="27.59" speed="3.95"/>
            </lane>
        </edge>
        <edge id="top">
            <lane id="top_0">
                <vehicle id="cfm_slow_3" pos="15.59" speed="3.95"/>
            </lane>
        </edge>
    </timestep>
    <timestep time="0.30">
        <edge id="bottom">
            <lane id="bottom_0">
                <vehicle id="cfm_slow_0" pos="1.63" speed="4.09"/>
                <vehicle id="cfm_slow_1" pos="39.63" speed="4.09"/>
            </lane>
        </edge>
        <edge id="left">
            <lane id="left_0">
                <vehicle id="cfm_slow_4" pos="3.63" speed="4.09"/>
            </lane>
        </edge>
        <edge id="right">
            <lane id="right_0">
                <vehicle id="cfm_slow_2" pos="27.63" speed="4.09"/>
            </lane>
        </edge>
        <edge id="top">
            <lane id="top_0">
                <vehicle id="cfm_slow_3" pos="15.63" speed="4.09"/>
            </lane>
        </edge>
    </timestep>
    <timestep time="0.31">
        <edge id="bottom">
            <lane id="bottom_0">
                <vehicle id="cfm_slow_0" pos="1.68" speed="4.23"/>
                <vehicle id="cfm_slow_1" pos="39.68" speed="4.23"/>
            </lane>
        </edge>
        <edge id="left">
            <lane id="left_0">
                <vehicle id="cfm_slow_4" pos="3.68" speed="4.23"/>
            </lane>
        </edge>
        <edge id="right">
            <lane id="right_0">
                <vehicle id="cfm_slow_2" pos="27.68" speed="4.23"/>
            </lane>
        </edge>
        <edge id="top">
            <lane id="top_0">
                <vehicle id="cfm_slow_3" pos="15.68" speed="4.23"/>
            </lane>
        </edge>
    </timestep>
    <timestep time="0.32">
        <edge id="bottom">
            <lane id="bottom_0">
                <vehicle id="cfm_slow_0" pos="1.72" speed="4.36"/>
                <vehicle id="cfm_slow_1" pos="39.72" speed="4.36"/>
            </lane>
        </edge>
        <edge id="left">
            <lane id="left_0">
                <vehicle id="cfm_slow_4" pos="3.72" speed="4.36"/>
            </lane>
        </edge>
        <edge id="right">
            <lane id="right_0">
                <vehicle id="cfm_slow_2" pos="27.72" speed="4.36"/>
            </lane>
        </edge>
        <edge id="top">
            <lane id="top_0">
                <vehicle id="cfm_slow_3" pos="15.72" speed="4.36"/>
            </lane>
        </edge>
    </timestep>
    <timestep time="0.33">
        <edge id="bottom">
            <lane id="bottom_0">
                <vehicle id="cfm_slow_0" pos="1.76" speed="4.50"/>
                <vehicle id="cfm_slow_1" pos="39.77" speed="4.50"/>
            </lane>
        </edge>
        <edge id="left">
            <lane id="left_0">
                <vehicle id="cfm_slow_4" pos="3.77" speed="4.50"/>
            </lane>
        </edge>
        <edge id="right">
            <lane id="right_0">
                <vehicle id="cfm_slow_2" pos="27.76" speed="4.50"/>
            </lane>
        </edge>
        <edge id="top">
            <lane id="top_0">
                <vehicle id="cfm_slow_3" pos="15.76" speed="4.50"/>
            </lane>
        </edge>
    </timestep>
    <timestep time="0.34">
        <edge id="bottom">
            <lane id="bottom_0">
                <vehicle id="cfm_slow_0" pos="1.81" speed="4.64"/>
                <vehicle id="cfm_slow_1" pos="39.81" speed="4.64"/>
            </lane>
        </edge>
        <edge id="left">
            <lane id="left_0">
                <vehicle id="cfm_slow_4" pos="3.81" speed="4.64"/>
            </lane>
        </edge>
        <edge id="right">
            <lane id="right_0">
                <vehicle id="cfm_slow_2" pos="27.81" speed="4.64"/>
            </lane>
        </edge>
        <edge id="top">
            <lane id="top_0">
                <vehicle id="cfm_slow_3" pos="15.81" speed="4.64"/>
            </lane>
        </edge>
    </timestep>
    <timestep time="0.35">
        <edge id="bottom">
            <lane id="bottom_0">
                <vehicle id="cfm_slow_0" pos="1.86" speed="4.77"/>
                <vehicle id="cfm_slow_1" pos="39.86" speed="4.77"/>
            </lane>
        </edge>
        <edge id="left">
            <lane id="left_0">
                <vehicle id="cfm_slow_4" pos="3.86" speed="4.77"/>
            </lane>
        </edge>
        <edge id="right">
            <lane id="right_0">
                <vehicle id="cfm_slow_2" pos="27.86" speed="4.77"/>
            </lane>
        </edge>
        <edge id="top">
            <lane id="top_0">
                <vehicle id="cfm_slow_3" pos="15.86" speed="4.77"/>
            </lane>
        </edge>
    </timestep>
    <timestep time="0.36">
        <edge id="bottom">
            <lane id="bottom_0">
                <vehicle id="cfm_slow_0" pos="1.91" speed="4.91"/>
                <vehicle id="cfm_slow_1" pos="39.91" speed="4.91"/>
            </lane>
        </edge>
        <edge id="left">
            <lane id="left_0">
                <vehicle id="cfm_slow_4" pos="3.91" speed="4.91"/>
            </lane>
        </edge>
        <edge id="right">
            <lane id="right_0">
                <vehicle id="cfm_slow_2" pos="27.91" speed="4.91"/>
            </lane>
        </edge>
        <edge id="top">
            <lane id="top_0">
                <vehicle id="cfm_slow_3" pos="15.91" speed="4.91"/>
            </lane>
        </edge>
    </timestep>
    <timestep time="0.37">
        <edge id="bottom">
            <lane id="bottom_0">
                <vehicle id="cfm_slow_0" pos="1.96" speed="5.05"/>
                <vehicle id="cfm_slow_1" pos="39.96" speed="5.05"/>
            </lane>
        </edge>
        <edge id="left">
            <lane id="left_0">
                <vehicle id="cfm_slow_4" pos="3.96" speed="5.05"/>
            </lane>
        </edge>
        <edge id="right">
            <lane id="right_0">
                <vehicle id="cfm_slow_2" pos="27.96" speed="5.05"/>
            </lane>
        </edge>