<?xml version="1.0" encoding="UTF-8"?>

<!-- generated on Mon Feb 27 13:04:32 2017 by SUMO Version 0.29.0
<?xml version="1.0" encoding="UTF-8"?>

<configuration xmlns:xsi="http://www.w3.org/2001/XMLSchema-instance" xsi:noNamespaceSchemaLocation="http://sumo.dlr.de/xsd/sumoConfiguration.xsd">

    <input>
        <net-file value="tests/debug/cfg/test-single-lane-one-controller-200m1l.net.xml"/>
        <route-files value="tests/debug/cfg/test-single-lane-one-controller-200m1l.rou.xml"/>
        <additional-files value="tests/debug/cfg/test-single-lane-one-controller-200m1l.add.xml"/>
    </input>

    <output>
        <netstate-dump value="tests/debug/cfg/data/test-single-lane-one-controller-200m1l.netstate.xml"/>
        <emission-output value="tests/debug/cfg/data/test-single-lane-one-controller-200m1l.emission.xml"/>
        <amitran-output value="tests/debug/cfg/data/test-single-lane-one-controller-200m1l.amitran.xml"/>
        <lanechange-output value="tests/debug/cfg/data/test-single-lane-one-controller-200m1l.lanechange.xml"/>
    </output>

    <time>
        <begin value="0"/>
        <end value="1000"/>
        <step-length value="0.01"/>
    </time>

    <traci_server>
        <remote-port value="8873"/>
    </traci_server>

    <gui_only>
        <gui-settings-file value="tests/debug/cfg/test-single-lane-one-controller-200m1l.gui.cfg"/>
    </gui_only>

</configuration>
-->

<emission-export xmlns:xsi="http://www.w3.org/2001/XMLSchema-instance" xsi:noNamespaceSchemaLocation="http://sumo.dlr.de/xsd/emission_file.xsd">
    <timestep time="0.00">
        <vehicle id="cfm_slow_0" eclass="HBEFA3/PC_G_EU4" CO2="2624.72" CO="164.78" HC="0.81" NOx="1.20" PMx="0.07" fuel="1.13" electricity="0.00" noise="55.94" route="routebottom" type="cfm_slow" waiting="0.00" lane="bottom_0" pos="1.00" speed="0.00" angle="92.66" x="65.74" y="-1.61"/>
        <vehicle id="cfm_slow_1" eclass="HBEFA3/PC_G_EU4" CO2="2624.72" CO="164.78" HC="0.81" NOx="1.20" PMx="0.07" fuel="1.13" electricity="0.00" noise="55.94" route="routebottom" type="cfm_slow" waiting="0.00" lane="bottom_0" pos="39.00" speed="0.00" angle="24.30" x="125.09" y="41.53"/>
        <vehicle id="cfm_slow_2" eclass="HBEFA3/PC_G_EU4" CO2="2624.72" CO="164.78" HC="0.81" NOx="1.20" PMx="0.07" fuel="1.13" electricity="0.00" noise="55.94" route="routeright" type="cfm_slow" waiting="0.00" lane="right_0" pos="27.00" speed="0.00" angle="315.98" x="106.86" y="112.65"/>
        <vehicle id="cfm_slow_3" eclass="HBEFA3/PC_G_EU4" CO2="2624.72" CO="164.78" HC="0.81" NOx="1.20" PMx="0.07" fuel="1.13" electricity="0.00" noise="55.94" route="routetop" type="cfm_slow" waiting="0.00" lane="top_0" pos="15.00" speed="0.00" angle="247.45" x="34.00" y="121.84"/>
        <vehicle id="cfm_slow_4" eclass="HBEFA3/PC_G_EU4" CO2="2624.72" CO="164.78" HC="0.81" NOx="1.20" PMx="0.07" fuel="1.13" electricity="0.00" noise="55.94" route="routeleft" type="cfm_slow" waiting="0.00" lane="left_0" pos="3.00" speed="0.00" angle="179.11" x="-1.35" y="57.49"/>
    </timestep>
    <timestep time="0.01">
        <vehicle id="cfm_slow_0" eclass="HBEFA3/PC_G_EU4" CO2="3091.89" CO="171.99" HC="0.86" NOx="1.42" PMx="0.08" fuel="1.33" electricity="0.00" noise="115.99" route="routebottom" type="cfm_slow" waiting="0.00" lane="bottom_0" pos="1.00" speed="0.14" angle="92.66" x="65.74" y="-1.61"/>
        <vehicle id="cfm_slow_1" eclass="HBEFA3/PC_G_EU4" CO2="3091.89" CO="171.99" HC="0.86" NOx="1.42" PMx="0.08" fuel="1.33" electricity="0.00" noise="115.99" route="routebottom" type="cfm_slow" waiting="0.00" lane="bottom_0" pos="39.00" speed="0.14" angle="24.30" x="125.09" y="41.53"/>
        <vehicle id="cfm_slow_2" eclass="HBEFA3/PC_G_EU4" CO2="3091.89" CO="171.99" HC="0.86" NOx="1.42" PMx="0.08" fuel="1.33" electricity="0.00" noise="115.99" route="routeright" type="cfm_slow" waiting="0.00" lane="right_0" pos="27.00" speed="0.14" angle="315.98" x="106.85" y="112.66"/>
        <vehicle id="cfm_slow_3" eclass="HBEFA3/PC_G_EU4" CO2="3091.89" CO="171.99" HC="0.86" NOx="1.42" PMx="0.08" fuel="1.33" electricity="0.00" noise="115.99" route="routetop" type="cfm_slow" waiting="0.00" lane="top_0" pos="15.00" speed="0.14" angle="247.44" x="34.00" y="121.84"/>
        <vehicle id="cfm_slow_4" eclass="HBEFA3/PC_G_EU4" CO2="3091.89" CO="171.99" HC="0.86" NOx="1.42" PMx="0.08" fuel="1.33" electricity="0.00" noise="115.99" route="routeleft" type="cfm_slow" waiting="0.00" lane="left_0" pos="3.00" speed="0.14" angle="179.11" x="-1.35" y="57.49"/>
    </timestep>
    <timestep time="0.02">
        <vehicle id="cfm_slow_0" eclass="HBEFA3/PC_G_EU4" CO2="3559.34" CO="179.23" HC="0.90" NOx="1.64" PMx="0.09" fuel="1.53" electricity="0.00" noise="116.04" route="routebottom" type="cfm_slow" waiting="0.00" lane="bottom_0" pos="1.00" speed="0.27" angle="92.66" x="65.75" y="-1.61"/>
        <vehicle id="cfm_slow_1" eclass="HBEFA3/PC_G_EU4" CO2="3559.34" CO="179.23" HC="0.90" NOx="1.64" PMx="0.09" fuel="1.53" electricity="0.00" noise="116.04" route="routebottom" type="cfm_slow" waiting="0.00" lane="bottom_0" pos="39.00" speed="0.27" angle="24.29" x="125.09" y="41.53"/>
        <vehicle id="cfm_slow_2" eclass="HBEFA3/PC_G_EU4" CO2="3559.34" CO="179.23" HC="0.90" NOx="1.64" PMx="0.09" fuel="1.53" electricity="0.00" noise="116.04" route="routeright" type="cfm_slow" waiting="0.00" lane="right_0" pos="27.00" speed="0.27" angle="315.98" x="106.85" y="112.66"/>
        <vehicle id="cfm_slow_3" eclass="HBEFA3/PC_G_EU4" CO2="3559.34" CO="179.23" HC="0.90" NOx="1.64" PMx="0.09" fuel="1.53" electricity="0.00" noise="116.04" route="routetop" type="cfm_slow" waiting="0.00" lane="top_0" pos="15.00" speed="0.27" angle="247.44" x="34.00" y="121.84"/>
        <vehicle id="cfm_slow_4" eclass="HBEFA3/PC_G_EU4" CO2="3559.34" CO="179.23" HC="0.90" NOx="1.64" PMx="0.09" fuel="1.53" electricity="0.00" noise="116.04" route="routeleft" type="cfm_slow" waiting="0.00" lane="left_0" pos="3.00" speed="0.27" angle="179.10" x="-1.35" y="57.48"/>
    </timestep>
    <timestep time="0.03">
        <vehicle id="cfm_slow_0" eclass="HBEFA3/PC_G_EU4" CO2="4027.09" CO="186.49" HC="0.95" NOx="1.85" PMx="0.10" fuel="1.73" electricity="0.00" noise="116.09" route="routebottom" type="cfm_slow" waiting="0.00" lane="bottom_0" pos="1.01" speed="0.41" angle="92.65" x="65.76" y="-1.61"/>
        <vehicle id="cfm_slow_1" eclass="HBEFA3/PC_G_EU4" CO2="4027.09" CO="186.49" HC="0.95" NOx="1.85" PMx="0.10" fuel="1.73" electricity="0.00" noise="116.09" route="routebottom" type="cfm_slow" waiting="0.00" lane="bottom_0" pos="39.01" speed="0.41" angle="24.28" x="125.10" y="41.54"/>
        <vehicle id="cfm_slow_2" eclass="HBEFA3/PC_G_EU4" CO2="4027.09" CO="186.49" HC="0.95" NOx="1.85" PMx="0.10" fuel="1.73" electricity="0.00" noise="116.09" route="routeright" type="cfm_slow" waiting="0.00" lane="right_0" pos="27.01" speed="0.41" angle="315.97" x="106.84" y="112.66"/>
        <vehicle id="cfm_slow_3" eclass="HBEFA3/PC_G_EU4" CO2="4027.09" CO="186.49" HC="0.95" NOx="1.85" PMx="0.10" fuel="1.73" electricity="0.00" noise="116.09" route="routetop" type="cfm_slow" waiting="0.00" lane="top_0" pos="15.01" speed="0.41" angle="247.43" x="33.99" y="121.83"/>
        <vehicle id="cfm_slow_4" eclass="HBEFA3/PC_G_EU4" CO2="4027.09" CO="186.49" HC="0.95" NOx="1.85" PMx="0.10" fuel="1.73" electricity="0.00" noise="116.09" route="routeleft" type="cfm_slow" waiting="0.00" lane="left_0" pos="3.01" speed="0.41" angle="179.10" x="-1.35" y="57.47"/>
    </timestep>
    <timestep time="0.04">
        <vehicle id="cfm_slow_0" eclass="HBEFA3/PC_G_EU4" CO2="4495.13" CO="193.77" HC="0.99" NOx="2.07" PMx="0.11" fuel="1.93" electricity="0.00" noise="116.14" route="routebottom" type="cfm_slow" waiting="0.00" lane="bottom_0" pos="1.01" speed="0.55" angle="92.64" x="65.77" y="-1.61"/>
        <vehicle id="cfm_slow_1" eclass="HBEFA3/PC_G_EU4" CO2="4495.13" CO="193.77" HC="0.99" NOx="2.07" PMx="0.11" fuel="1.93" electricity="0.00" noise="116.14" route="routebottom" type="cfm_slow" waiting="0.00" lane="bottom_0" pos="39.01" speed="0.55" angle="24.28" x="125.10" y="41.55"/>
        <vehicle id="cfm_slow_2" eclass="HBEFA3/PC_G_EU4" CO2="4495.13" CO="193.77" HC="0.99" NOx="2.07" PMx="0.11" fuel="1.93" electricity="0.00" noise="116.14" route="routeright" type="cfm_slow" waiting="0.00" lane="right_0" pos="27.01" speed="0.55" angle="315.96" x="106.84" y="112.67"/>
        <vehicle id="cfm_slow_3" eclass="HBEFA3/PC_G_EU4" CO2="4495.13" CO="193.77" HC="0.99" NOx="2.07" PMx="0.11" fuel="1.93" electricity="0.00" noise="116.14" route="routetop" type="cfm_slow" waiting="0.00" lane="top_0" pos="15.01" speed="0.55" angle="247.42" x="33.98" y="121.83"/>
        <vehicle id="cfm_slow_4" eclass="HBEFA3/PC_G_EU4" CO2="4495.13" CO="193.77" HC="0.99" NOx="2.07" PMx="0.11" fuel="1.93" electricity="0.00" noise="116.14" route="routeleft" type="cfm_slow" waiting="0.00" lane="left_0" pos="3.01" speed="0.55" angle="179.09" x="-1.35" y="57.46"/>
    </timestep>
    <timestep time="0.05">
        <vehicle id="cfm_slow_0" eclass="HBEFA3/PC_G_EU4" CO2="4963.46" CO="201.07" HC="1.03" NOx="2.29" PMx="0.12" fuel="2.13" electricity="0.00" noise="116.20" route="routebottom" type="cfm_slow" waiting="0.00" lane="bottom_0" pos="1.02" speed="0.68" angle="92.63" x="65.78" y="-1.61"/>
        <vehicle id="cfm_slow_1" eclass="HBEFA3/PC_G_EU4" CO2="4963.46" CO="201.07" HC="1.03" NOx="2.29" PMx="0.12" fuel="2.13" electricity="0.00" noise="116.20" route="routebottom" type="cfm_slow" waiting="0.00" lane="bottom_0" pos="39.02" speed="0.68" angle="24.26" x="125.10" y="41.57"/>
        <vehicle id="cfm_slow_2" eclass="HBEFA3/PC_G_EU4" CO2="4963.46" CO="201.07" HC="1.03" NOx="2.29" PMx="0.12" fuel="2.13" electricity="0.00" noise="116.20" route="routeright" type="cfm_slow" waiting="0.00" lane="right_0" pos="27.02" speed="0.68" angle="315.94" x="106.82" y="112.68"/>
        <vehicle id="cfm_slow_3" eclass="HBEFA3/PC_G_EU4" CO2="4963.46" CO="201.07" HC="1.03" NOx="2.29" PMx="0.12" fuel="2.13" electricity="0.00" noise="116.20" route="routetop" type="cfm_slow" waiting="0.00" lane="top_0" pos="15.02" speed="0.68" angle="247.41" x="33.97" y="121.82"/>
        <vehicle id="cfm_slow_4" eclass="HBEFA3/PC_G_EU4" CO2="4963.46" CO="201.07" HC="1.03" NOx="2.29" PMx="0.12" fuel="2.13" electricity="0.00" noise="116.20" route="routeleft" type="cfm_slow" waiting="0.00" lane="left_0" pos="3.02" speed="0.68" angle="179.07" x="-1.34" y="57.45"/>
    </timestep>
    <timestep time="0.06">
        <vehicle id="cfm_slow_0" eclass="HBEFA3/PC_G_EU4" CO2="5432.08" CO="208.39" HC="1.08" NOx="2.51" PMx="0.13" fuel="2.34" electricity="0.00" noise="116.25" route="routebottom" type="cfm_slow" waiting="0.00" lane="bottom_0" pos="1.03" speed="0.82" angle="92.61" x="65.80" y="-1.61"/>
        <vehicle id="cfm_slow_1" eclass="HBEFA3/PC_G_EU4" CO2="5432.08" CO="208.39" HC="1.08" NOx="2.51" PMx="0.13" fuel="2.34" electricity="0.00" noise="116.25" route="routebottom" type="cfm_slow" waiting="0.00" lane="bottom_0" pos="39.03" speed="0.82" angle="24.25" x="125.11" y="41.58"/>
        <vehicle id="cfm_slow_2" eclass="HBEFA3/PC_G_EU4" CO2="5432.08" CO="208.39" HC="1.08" NOx="2.51" PMx="0.13" fuel="2.34" electricity="0.00" noise="116.25" route="routeright" type="cfm_slow" waiting="0.00" lane="right_0" pos="27.03" speed="0.82" angle="315.93" x="106.81" y="112.69"/>
        <vehicle id="cfm_slow_3" eclass="HBEFA3/PC_G_EU4" CO2="5432.08" CO="208.39" HC="1.08" NOx="2.51" PMx="0.13" fuel="2.34" electricity="0.00" noise="116.25" route="routetop" type="cfm_slow" waiting="0.00" lane="top_0" pos="15.03" speed="0.82" angle="247.39" x="33.95" y="121.82"/>
        <vehicle id="cfm_slow_4" eclass="HBEFA3/PC_G_EU4" CO2="5432.08" CO="208.39" HC="1.08" NOx="2.51" PMx="0.13" fuel="2.34" electricity="0.00" noise="116.25" route="routeleft" type="cfm_slow" waiting="0.00" lane="left_0" pos="3.03" speed="0.82" angle="179.06" x="-1.34" y="57.43"/>
    </timestep>
    <timestep time="0.07">
        <vehicle id="cfm_slow_0" eclass="HBEFA3/PC_G_EU4" CO2="5901.00" CO="215.74" HC="1.12" NOx="2.72" PMx="0.15" fuel="2.54" electricity="0.00" noise="116.30" route="routebottom" type="cfm_slow" waiting="0.00" lane="bottom_0" pos="1.04" speed="0.95" angle="92.60" x="65.82" y="-1.61"/>
        <vehicle id="cfm_slow_1" eclass="HBEFA3/PC_G_EU4" CO2="5901.00" CO="215.74" HC="1.12" NOx="2.72" PMx="0.15" fuel="2.54" electricity="0.00" noise="116.30" route="routebottom" type="cfm_slow" waiting="0.00" lane="bottom_0" pos="39.04" speed="0.95" angle="24.23" x="125.12" y="41.60"/>
        <vehicle id="cfm_slow_2" eclass="HBEFA3/PC_G_EU4" CO2="5901.00" CO="215.74" HC="1.12" NOx="2.72" PMx="0.15" fuel="2.54" electricity="0.00" noise="116.30" route="routeright" type="cfm_slow" waiting="0.00" lane="right_0" pos="27.04" speed="0.95" angle="315.91" x="106.80" y="112.70"/>
        <vehicle id="cfm_slow_3" eclass="HBEFA3/PC_G_EU4" CO2="5901.00" CO="215.74" HC="1.12" NOx="2.72" PMx="0.15" fuel="2.54" electricity="0.00" noise="116.30" route="routetop" type="cfm_slow" waiting="0.00" lane="top_0" pos="15.04" speed="0.95" angle="247.38" x="33.93" y="121.81"/>
        <vehicle id="cfm_slow_4" eclass="HBEFA3/PC_G_EU4" CO2="5901.00" CO="215.74" HC="1.12" NOx="2.72" PMx="0.15" fuel="2.54" electricity="0.00" noise="116.30" route="routeleft" type="cfm_slow" waiting="0.00" lane="left_0" pos="3.04" speed="0.95" angle="179.04" x="-1.34" y="57.41"/>
    </timestep>
    <timestep time="0.08">
        <vehicle id="cfm_slow_0" eclass="HBEFA3/PC_G_EU4" CO2="6370.20" CO="223.11" HC="1.17" NOx="2.94" PMx="0.16" fuel="2.74" electricity="0.00" noise="116.35" route="routebottom" type="cfm_slow" waiting="0.00" lane="bottom_0" pos="1.05" speed="1.09" angle="92.58" x="65.84" y="-1.61"/>
        <vehicle id="cfm_slow_1" eclass="HBEFA3/PC_G_EU4" CO2="6370.20" CO="223.11" HC="1.17" NOx="2.94" PMx="0.16" fuel="2.74" electricity="0.00" noise="116.35" route="routebottom" type="cfm_slow" waiting="0.00" lane="bottom_0" pos="39.05" speed="1.09" angle="24.21" x="125.13" y="41.62"/>
        <vehicle id="cfm_slow_2" eclass="HBEFA3/PC_G_EU4" CO2="6370.20" CO="223.11" HC="1.17" NOx="2.94" PMx="0.16" fuel="2.74" electricity="0.00" noise="116.35" route="routeright" type="cfm_slow" waiting="0.00" lane="right_0" pos="27.05" speed="1.09" angle="315.89" x="106.78" y="112.72"/>
        <vehicle id="cfm_slow_3" eclass="HBEFA3/PC_G_EU4" CO2="6370.20" CO="223.11" HC="1.17" NOx="2.94" PMx="0.16" fuel="2.74" electricity="0.00" noise="116.35" route="routetop" type="cfm_slow" waiting="0.00" lane="top_0" pos="15.05" speed="1.09" angle="247.36" x="33.91" y="121.80"/>
        <vehicle id="cfm_slow_4" eclass="HBEFA3/PC_G_EU4" CO2="6370.20" CO="223.11" HC="1.17" NOx="2.94" PMx="0.16" fuel="2.74" electricity="0.00" noise="116.35" route="routeleft" type="cfm_slow" waiting="0.00" lane="left_0" pos="3.05" speed="1.09" angle="179.02" x="-1.34" y="57.39"/>
    </timestep>
    <timestep time="0.09">
        <vehicle id="cfm_slow_0" eclass="HBEFA3/PC_G_EU4" CO2="6839.70" CO="230.49" HC="1.22" NOx="3.16" PMx="0.17" fuel="2.94" electricity="0.00" noise="116.40" route="routebottom" type="cfm_slow" waiting="0.00" lane="bottom_0" pos="1.06" speed="1.23" angle="92.55" x="65.87" y="-1.61"/>
        <vehicle id="cfm_slow_1" eclass="HBEFA3/PC_G_EU4" CO2="6839.70" CO="230.49" HC="1.22" NOx="3.16" PMx="0.17" fuel="2.94" electricity="0.00" noise="116.40" route="routebottom" type="cfm_slow" waiting="0.00" lane="bottom_0" pos="39.06" speed="1.23" angle="24.19" x="125.13" y="41.65"/>
        <vehicle id="cfm_slow_2" eclass="HBEFA3/PC_G_EU4" CO2="6839.70" CO="230.49" HC="1.22" NOx="3.16" PMx="0.17" fuel="2.94" electricity="0.00" noise="116.40" route="routeright" type="cfm_slow" waiting="0.00" lane="right_0" pos="27.06" speed="1.23" angle="315.86" x="106.76" y="112.73"/>
        <vehicle id="cfm_slow_3" eclass="HBEFA3/PC_G_EU4" CO2="6839.70" CO="230.49" HC="1.22" NOx="3.16" PMx="0.17" fuel="2.94" electricity="0.00" noise="116.40" route="routetop" type="cfm_slow" waiting="0.00" lane="top_0" pos="15.06" speed="1.23" angle="247.33" x="33.89" y="121.79"/>
        <vehicle id="cfm_slow_4" eclass="HBEFA3/PC_G_EU4" CO2="6839.70" CO="230.49" HC="1.22" NOx="3.16" PMx="0.17" fuel="2.94" electricity="0.00" noise="116.40" route="routeleft" type="cfm_slow" waiting="0.00" lane="left_0" pos="3.06" speed="1.23" angle="179.00" x="-1.34" y="57.36"/>
    </timestep>
    <timestep time="0.10">
        <vehicle id="cfm_slow_0" eclass="HBEFA3/PC_G_EU4" CO2="7309.49" CO="237.90" HC="1.26" NOx="3.38" PMx="0.18" fuel="3.14" electricity="0.00" noise="116.45" route="routebottom" type="cfm_slow" waiting="0.00" lane="bottom_0" pos="1.08" speed="1.36" angle="92.53" x="65.89" y="-1.61"/>
        <vehicle id="cfm_slow_1" eclass="HBEFA3/PC_G_EU4" CO2="7309.49" CO="237.90" HC="1.26" NOx="3.38" PMx="0.18" fuel="3.14" electricity="0.00" noise="116.45" route="routebottom" type="cfm_slow" waiting="0.00" lane="bottom_0" pos="39.08" speed="1.36" angle="24.16" x="125.14" y="41.67"/>
        <vehicle id="cfm_slow_2" eclass="HBEFA3/PC_G_EU4" CO2="7309.49" CO="237.90" HC="1.26" NOx="3.38" PMx="0.18" fuel="3.14" electricity="0.00" noise="116.45" route="routeright" type="cfm_slow" waiting="0.00" lane="right_0" pos="27.07" speed="1.36" angle="315.84" x="106.74" y="112.75"/>
        <vehicle id="cfm_slow_3" eclass="HBEFA3/PC_G_EU4" CO2="7309.49" CO="237.90" HC="1.26" NOx="3.38" PMx="0.18" fuel="3.14" electricity="0.00" noise="116.45" route="routetop" type="cfm_slow" waiting="0.00" lane="top_0" pos="15.07" speed="1.36" angle="247.31" x="33.87" y="121.77"/>
        <vehicle id="cfm_slow_4" eclass="HBEFA3/PC_G_EU4" CO2="7309.49" CO="237.90" HC="1.26" NOx="3.38" PMx="0.18" fuel="3.14" electricity="0.00" noise="116.45" route="routeleft" type="cfm_slow" waiting="0.00" lane="left_0" pos="3.08" speed="1.36" angle="178.97" x="-1.33" y="57.34"/>
    </timestep>
    <timestep time="0.11">
        <vehicle id="cfm_slow_0" eclass="HBEFA3/PC_G_EU4" CO2="7779.58" CO="245.33" HC="1.31" NOx="3.60" PMx="0.19" fuel="3.34" electricity="0.00" noise="116.51" route="routebottom" type="cfm_slow" waiting="0.00" lane="bottom_0" pos="1.09" speed="1.50" angle="92.50" x="65.92" y="-1.61"/>
        <vehicle id="cfm_slow_1" eclass="HBEFA3/PC_G_EU4" CO2="7779.58" CO="245.33" HC="1.31" NOx="3.60" PMx="0.19" fuel="3.34" electricity="0.00" noise="116.51" route="routebottom" type="cfm_slow" waiting="0.00" lane="bottom_0" pos="39.09" speed="1.50" angle="24.14" x="125.15" y="41.70"/>
        <vehicle id="cfm_slow_2" eclass="HBEFA3/PC_G_EU4" CO2="7779.58" CO="245.33" HC="1.31" NOx="3.60" PMx="0.19" fuel="3.34" electricity="0.00" noise="116.51" route="routeright" type="cfm_slow" waiting="0.00" lane="right_0" pos="27.09" speed="1.50" angle="315.81" x="106.72" y="112.77"/>
        <vehicle id="cfm_slow_3" eclass="HBEFA3/PC_G_EU4" CO2="7779.58" CO="245.33" HC="1.31" NOx="3.60" PMx="0.19" fuel="3.34" electricity="0.00" noise="116.51" route="routetop" type="cfm_slow" waiting="0.00" lane="top_0" pos="15.09" speed="1.50" angle="247.28" x="33.84" y="121.76"/>
        <vehicle id="cfm_slow_4" eclass="HBEFA3/PC_G_EU4" CO2="7779.58" CO="245.33" HC="1.31" NOx="3.60" PMx="0.19" fuel="3.34" electricity="0.00" noise="116.51" route="routeleft" type="cfm_slow" waiting="0.00" lane="left_0" pos="3.09" speed="1.50" angle="178.95" x="-1.33" y="57.30"/>
    </timestep>
    <timestep time="0.12">
        <vehicle id="cfm_slow_0" eclass="HBEFA3/PC_G_EU4" CO2="8249.95" CO="252.79" HC="1.35" NOx="3.81" PMx="0.20" fuel="3.55" electricity="0.00" noise="116.56" route="routebottom" type="cfm_slow" waiting="0.00" lane="bottom_0" pos="1.11" speed="1.64" angle="92.47" x="65.96" y="-1.61"/>
        <vehicle id="cfm_slow_1" eclass="HBEFA3/PC_G_EU4" CO2="8249.95" CO="252.79" HC="1.35" NOx="3.81" PMx="0.20" fuel="3.55" electricity="0.00" noise="116.56" route="routebottom" type="cfm_slow" waiting="0.00" lane="bottom_0" pos="39.11" speed="1.64" angle="24.11" x="125.17" y="41.73"/>
        <vehicle id="cfm_slow_2" eclass="HBEFA3/PC_G_EU4" CO2="8249.95" CO="252.79" HC="1.35" NOx="3.81" PMx="0.20" fuel="3.55" electricity="0.00" noise="116.56" route="routeright" type="cfm_slow" waiting="0.00" lane="right_0" pos="27.11" speed="1.64" angle="315.77" x="106.69" y="112.79"/>
        <vehicle id="cfm_slow_3" eclass="HBEFA3/PC_G_EU4" CO2="8249.95" CO="252.79" HC="1.35" NOx="3.81" PMx="0.20" fuel="3.55" electricity="0.00" noise="116.56" route="routetop" type="cfm_slow" waiting="0.00" lane="top_0" pos="15.11" speed="1.64" angle="247.25" x="33.81" y="121.74"/>
        <vehicle id="cfm_slow_4" eclass="HBEFA3/PC_G_EU4" CO2="8249.95" CO="252.79" HC="1.35" NOx="3.81" PMx="0.20" fuel="3.55" electricity="0.00" noise="116.56" route="routeleft" type="cfm_slow" waiting="0.00" lane="left_0" pos="3.11" speed="1.64" angle="178.92" x="-1.33" y="57.27"/>
    </timestep>
    <timestep time="0.13">
        <vehicle id="cfm_slow_0" eclass="HBEFA3/PC_G_EU4" CO2="8720.62" CO="260.26" HC="1.40" NOx="4.03" PMx="0.22" fuel="3.75" electricity="0.00" noise="116.61" route="routebottom" type="cfm_slow" waiting="0.00" lane="bottom_0" pos="1.12" speed="1.77" angle="92.44" x="65.99" y="-1.61"/>
        <vehicle id="cfm_slow_1" eclass="HBEFA3/PC_G_EU4" CO2="8720.62" CO="260.26" HC="1.40" NOx="4.03" PMx="0.22" fuel="3.75" electricity="0.00" noise="116.61" route="routebottom" type="cfm_slow" waiting="0.00" lane="bottom_0" pos="39.12" speed="1.77" angle="24.08" x="125.18" y="41.77"/>
        <vehicle id="cfm_slow_2" eclass="HBEFA3/PC_G_EU4" CO2="8720.62" CO="260.26" HC="1.40" NOx="4.03" PMx="0.22" fuel="3.75" electricity="0.00" noise="116.61" route="routeright" type="cfm_slow" waiting="0.00" lane="right_0" pos="27.12" speed="1.77" angle="315.74" x="106.66" y="112.82"/>
        <vehicle id="cfm_slow_3" eclass="HBEFA3/PC_G_EU4" CO2="8720.62" CO="260.26" HC="1.40" NOx="4.03" PMx="0.22" fuel="3.75" electricity="0.00" noise="116.61" route="routetop" type="cfm_slow" waiting="0.00" lane="top_0" pos="15.12" speed="1.77" angle="247.22" x="33.78" y="121.73"/>
        <vehicle id="cfm_slow_4" eclass="HBEFA3/PC_G_EU4" CO2="8720.62" CO="260.26" HC="1.40" NOx="4.03" PMx="0.22" fuel="3.75" electricity="0.00" noise="116.61" route="routeleft" type="cfm_slow" waiting="0.00" lane="left_0" pos="3.12" speed="1.77" angle="178.88" x="-1.32" y="57.24"/>
    </timestep>
    <timestep time="0.14">
        <vehicle id="cfm_slow_0" eclass="HBEFA3/PC_G_EU4" CO2="9191.58" CO="267.76" HC="1.44" NOx="4.25" PMx="0.23" fuel="3.95" electricity="0.00" noise="116.67" route="routebottom" type="cfm_slow" waiting="0.00" lane="bottom_0" pos="1.14" speed="1.91" angle="92.40" x="66.03" y="-1.60"/>
        <vehicle id="cfm_slow_1" eclass="HBEFA3/PC_G_EU4" CO2="9191.58" CO="267.76" HC="1.44" NOx="4.25" PMx="0.23" fuel="3.95" electricity="0.00" noise="116.67" route="routebottom" type="cfm_slow" waiting="0.00" lane="bottom_0" pos="39.14" speed="1.91" angle="24.04" x="125.19" y="41.80"/>
        <vehicle id="cfm_slow_2" eclass="HBEFA3/PC_G_EU4" CO2="9191.58" CO="267.76" HC="1.44" NOx="4.25" PMx="0.23" fuel="3.95" electricity="0.00" noise="116.67" route="routeright" type="cfm_slow" waiting="0.00" lane="right_0" pos="27.14" speed="1.91" angle="315.70" x="106.63" y="112.84"/>
        <vehicle id="cfm_slow_3" eclass="HBEFA3/PC_G_EU4" CO2="9191.58" CO="267.76" HC="1.44" NOx="4.25" PMx="0.23" fuel="3.95" electricity="0.00" noise="116.67" route="routetop" type="cfm_slow" waiting="0.00" lane="top_0" pos="15.14" speed="1.91" angle="247.18" x="33.74" y="121.71"/>
        <vehicle id="cfm_slow_4" eclass="HBEFA3/PC_G_EU4" CO2="9191.58" CO="267.76" HC="1.44" NOx="4.25" PMx="0.23" fuel="3.95" electricity="0.00" noise="116.67" route="routeleft" type="cfm_slow" waiting="0.00" lane="left_0" pos="3.14" speed="1.91" angle="178.85" x="-1.32" y="57.20"/>
    </timestep>
    <timestep time="0.15">
        <vehicle id="cfm_slow_0" eclass="HBEFA3/PC_G_EU4" CO2="9662.83" CO="275.27" HC="1.49" NOx="4.47" PMx="0.24" fuel="4.15" electricity="0.00" noise="116.72" route="routebottom" type="cfm_slow" waiting="0.00" lane="bottom_0" pos="1.16" speed="2.05" angle="92.37" x="66.08" y="-1.60"/>
        <vehicle id="cfm_slow_1" eclass="HBEFA3/PC_G_EU4" CO2="9662.83" CO="275.27" HC="1.49" NOx="4.47" PMx="0.24" fuel="4.15" electricity="0.00" noise="116.72" route="routebottom" type="cfm_slow" waiting="0.00" lane="bottom_0" pos="39.16" speed="2.05" angle="24.01" x="125.21" y="41.84"/>
        <vehicle id="cfm_slow_2" eclass="HBEFA3/PC_G_EU4" CO2="9662.83" CO="275.27" HC="1.49" NOx="4.47" PMx="0.24" fuel="4.15" electricity="0.00" noise="116.72" route="routeright" type="cfm_slow" waiting="0.00" lane="right_0" pos="27.16" speed="2.05" angle="315.66" x="106.60" y="112.87"/>
        <vehicle id="cfm_slow_3" eclass="HBEFA3/PC_G_EU4" CO2="9662.83" CO="275.27" HC="1.49" NOx="4.47" PMx="0.24" fuel="4.15" electricity="0.00" noise="116.72" route="routetop" type="cfm_slow" waiting="0.00" lane="top_0" pos="15.16" speed="2.05" angle="247.14" x="33.70" y="121.69"/>
        <vehicle id="cfm_slow_4" eclass="HBEFA3/PC_G_EU4" CO2="9662.83" CO="275.27" HC="1.49" NOx="4.47" PMx="0.24" fuel="4.15" electricity="0.00" noise="116.72" route="routeleft" type="cfm_slow" waiting="0.00" lane="left_0" pos="3.16" speed="2.05" angle="178.81" x="-1.32" y="57.15"/>
    </timestep>
    <timestep time="0.16">
        <vehicle id="cfm_slow_0" eclass="HBEFA3/PC_G_EU4" CO2="10134.37" CO="282.81" HC="1.53" NOx="4.69" PMx="0.25" fuel="4.36" electricity="0.00" noise="116.77" route="routebottom" type="cfm_slow" waiting="0.00" lane="bottom_0" pos="1.19" speed="2.18" angle="92.33" x="66.12" y="-1.60"/>
        <vehicle id="cfm_slow_1" eclass="HBEFA3/PC_G_EU4" CO2="10134.37" CO="282.81" HC="1.53" NOx="4.69" PMx="0.25" fuel="4.36" electricity="0.00" noise="116.77" route="routebottom" type="cfm_slow" waiting="0.00" lane="bottom_0" pos="39.19" speed="2.18" angle="23.97" x="125.22" y="41.88"/>
        <vehicle id="cfm_slow_2" eclass="HBEFA3/PC_G_EU4" CO2="10134.37" CO="282.81" HC="1.53" NOx="4.69" PMx="0.25" fuel="4.36" electricity="0.00" noise="116.77" route="routeright" type="cfm_slow" waiting="0.00" lane="right_0" pos="27.19" speed="2.18" angle="315.62" x="106.57" y="112.90"/>
        <vehicle id="cfm_slow_3" eclass="HBEFA3/PC_G_EU4" CO2="10134.37" CO="282.81" HC="1.53" NOx="4.69" PMx="0.25" fuel="4.36" electricity="0.00" noise="116.77" route="routetop" type="cfm_slow" waiting="0.00" lane="top_0" pos="15.19" speed="2.18" angle="247.10" x="33.66" y="121.67"/>
        <vehicle id="cfm_slow_4" eclass="HBEFA3/PC_G_EU4" CO2="10134.37" CO="282.81" HC="1.53" NOx="4.69" PMx="0.25" fuel="4.36" electricity="0.00" noise="116.77" route="routeleft" type="cfm_slow" waiting="0.00" lane="left_0" pos="3.19" speed="2.18" angle="178.77" x="-1.31" y="57.11"/>
    </timestep>
    <timestep time="0.17">
        <vehicle id="cfm_slow_0" eclass="HBEFA3/PC_G_EU4" CO2="10606.21" CO="290.37" HC="1.58" NOx="4.91" PMx="0.26" fuel="4.56" electricity="0.00" noise="116.82" route="routebottom" type="cfm_slow" waiting="0.00" lane="bottom_0" pos="1.21" speed="2.32" angle="92.30" x="66.17" y="-1.60"/>
        <vehicle id="cfm_slow_1" eclass="HBEFA3/PC_G_EU4" CO2="10606.21" CO="290.37" HC="1.58" NOx="4.91" PMx="0.26" fuel="4.56" electricity="0.00" noise="116.82" route="routebottom" type="cfm_slow" waiting="0.00" lane="bottom_0" pos="39.21" speed="2.32" angle="23.92" x="125.24" y="41.93"/>
        <vehicle id="cfm_slow_2" eclass="HBEFA3/PC_G_EU4" CO2="10606.21" CO="290.37" HC="1.58" NOx="4.91" PMx="0.26" fuel="4.56" electricity="0.00" noise="116.82" route="routeright" type="cfm_slow" waiting="0.00" lane="right_0" pos="27.21" speed="2.32" angle="315.57" x="106.53" y="112.93"/>
        <vehicle id="cfm_slow_3" eclass="HBEFA3/PC_G_EU4" CO2="10606.21" CO="290.37" HC="1.58" NOx="4.91" PMx="0.26" fuel="4.56" electricity="0.00" noise="116.82" route="routetop" type="cfm_slow" waiting="0.00" lane="top_0" pos="15.21" speed="2.32" angle="247.06" x="33.62" y="121.65"/>
        <vehicle id="cfm_slow_4" eclass="HBEFA3/PC_G_EU4" CO2="10606.21" CO="290.37" HC="1.58" NOx="4.91" PMx="0.26" fuel="4.56" electricity="0.00" noise="116.82" route="routeleft" type="cfm_slow" waiting="0.00" lane="left_0" pos="3.21" speed="2.32" angle="178.73" x="-1.31" y="57.06"/>
    </timestep>
    <timestep time="0.18">
        <vehicle id="cfm_slow_0" eclass="HBEFA3/PC_G_EU4" CO2="11078.33" CO="297.95" HC="1.63" NOx="5.13" PMx="0.27" fuel="4.76" electricity="0.00" noise="116.88" route="routebottom" type="cfm_slow" waiting="0.00" lane="bottom_0" pos="1.23" speed="2.45" angle="92.27" x="66.22" y="-1.60"/>
        <vehicle id="cfm_slow_1" eclass="HBEFA3/PC_G_EU4" CO2="11078.33" CO="297.95" HC="1.63" NOx="5.13" PMx="0.27" fuel="4.76" electricity="0.00" noise="116.88" route="routebottom" type="cfm_slow" waiting="0.00" lane="bottom_0" pos="39.23" speed="2.45" angle="23.88" x="125.25" y="41.98"/>
        <vehicle id="cfm_slow_2" eclass="HBEFA3/PC_G_EU4" CO2="11078.33" CO="297.95" HC="1.63" NOx="5.13" PMx="0.27" fuel="4.76" electricity="0.00" noise="116.88" route="routeright" type="cfm_slow" waiting="0.00" lane="right_0" pos="27.23" speed="2.45" angle="315.52" x="106.49" y="112.96"/>
        <vehicle id="cfm_slow_3" eclass="HBEFA3/PC_G_EU4" CO2="11078.33" CO="297.95" HC="1.63" NOx="5.13" PMx="0.27" fuel="4.76" electricity="0.00" noise="116.88" route="routetop" type="cfm_slow" waiting="0.00" lane="top_0" pos="15.23" speed="2.45" angle="247.01" x="33.58" y="121.63"/>
        <vehicle id="cfm_slow_4" eclass="HBEFA3/PC_G_EU4" CO2="11078.33" CO="297.95" HC="1.63" NOx="5.13" PMx="0.27" fuel="4.76" electricity="0.00" noise="116.88" route="routeleft" type="cfm_slow" waiting="0.00" lane="left_0" pos="3.23" speed="2.45" angle="178.69" x="-1.30" y="57.01"/>
    </timestep>
    <timestep time="0.19">