<?xml version="1.0" encoding="UTF-8"?>

<!-- generated on Wed Feb  1 12:00:14 2017 by SUMO gui Version 0.27.1
<?xml version="1.0" encoding="UTF-8"?>

<configuration xmlns:xsi="http://www.w3.org/2001/XMLSchema-instance" xsi:noNamespaceSchemaLocation="http://sumo.dlr.de/xsd/sumo-gui.exeConfiguration.xsd">

    <input>
        <net-file value="debug/cfg/test-exp-200m2l.net.xml"/>
        <route-files value="debug/cfg/test-exp-200m2l.rou.xml"/>
        <additional-files value="debug/cfg/test-exp-200m2l.add.xml"/>
    </input>

    <output>
        <netstate-dump value="debug/cfg/data/test-exp-200m2l.netstate.xml"/>
        <emission-output value="debug/cfg/data/test-exp-200m2l.emission.xml"/>
        <amitran-output value="debug/cfg/data/test-exp-200m2l.amitran.xml"/>
        <lanechange-output value="debug/cfg/data/test-exp-200m2l.lanechange.xml"/>
    </output>

    <time>
        <begin value="0"/>
        <end value="3000"/>
        <step-length value="0.1"/>
    </time>

    <traci_server>
        <remote-port value="8873"/>
    </traci_server>

    <gui_only>
        <gui-settings-file value="debug/cfg/test-exp-200m2l.gui.cfg"/>
    </gui_only>

</configuration>
-->

<emission-export xmlns:xsi="http://www.w3.org/2001/XMLSchema-instance" xsi:noNamespaceSchemaLocation="http://sumo.dlr.de/xsd/emission_file.xsd">
    <timestep time="0.00">
        <vehicle id="rlbottom.0" eclass="HBEFA2/P_7_7" CO2="601.69" CO="6.37" HC="0.35" NOx="0.84" PMx="0.02" fuel="0.24" electricity="0.00" noise="55.94" route="routebottom" type="rl" waiting="0.00" lane="bottom_0" pos="0.00" speed="0.00" angle="94.47" x="63.71" y="-4.95"/>
        <vehicle id="rlleft.0" eclass="HBEFA2/P_7_7" CO2="601.69" CO="6.37" HC="0.35" NOx="0.84" PMx="0.02" fuel="0.24" electricity="0.00" noise="55.94" route="routeleft" type="rl" waiting="0.00" lane="left_0" pos="0.00" speed="0.00" angle="184.49" x="-4.95" y="63.66"/>
        <vehicle id="rlright.0" eclass="HBEFA2/P_7_7" CO2="601.69" CO="6.37" HC="0.35" NOx="0.84" PMx="0.02" fuel="0.24" electricity="0.00" noise="55.94" route="routeright" type="rl" waiting="0.00" lane="right_0" pos="0.00" speed="0.00" angle="4.48" x="132.27" y="63.67"/>
        <vehicle id="rltop.0" eclass="HBEFA2/P_7_7" CO2="601.69" CO="6.37" HC="0.35" NOx="0.84" PMx="0.02" fuel="0.24" electricity="0.00" noise="55.94" route="routetop" type="rl" waiting="0.00" lane="top_0" pos="0.00" speed="0.00" angle="274.49" x="63.66" y="132.27"/>
    </timestep>
    <timestep time="0.10">
        <vehicle id="rlbottom.0" eclass="HBEFA2/P_7_7" CO2="0.00" CO="0.00" HC="0.00" NOx="0.00" PMx="0.00" fuel="0.00" electricity="0.00" noise="500.04" route="routebottom" type="rl" waiting="0.00" lane="bottom_0" pos="1.00" speed="10.00" angle="92.64" x="65.86" y="-4.90"/>
        <vehicle id="rlleft.0" eclass="HBEFA2/P_7_7" CO2="0.00" CO="0.00" HC="0.00" NOx="0.00" PMx="0.00" fuel="0.00" electricity="0.00" noise="500.04" route="routeleft" type="rl" waiting="0.00" lane="left_0" pos="1.00" speed="10.00" angle="182.66" x="-4.90" y="61.51"/>
        <vehicle id="rlright.0" eclass="HBEFA2/P_7_7" CO2="0.00" CO="0.00" HC="0.00" NOx="0.00" PMx="0.00" fuel="0.00" electricity="0.00" noise="500.04" route="routeright" type="rl" waiting="0.00" lane="right_0" pos="1.00" speed="10.00" angle="2.65" x="132.23" y="65.82"/>
        <vehicle id="rltop.0" eclass="HBEFA2/P_7_7" CO2="0.00" CO="0.00" HC="0.00" NOx="0.00" PMx="0.00" fuel="0.00" electricity="0.00" noise="500.04" route="routetop" type="rl" waiting="0.00" lane="top_0" pos="1.00" speed="10.00" angle="272.65" x="61.51" y="132.23"/>
    </timestep>
    <timestep time="0.20">
        <vehicle id="rlbottom.0" eclass="HBEFA2/P_7_7" CO2="1680.07" CO="0.00" HC="0.29" NOx="2.67" PMx="0.10" fuel="0.67" electricity="0.00" noise="61.77" route="routebottom" type="rl" waiting="0.00" lane="bottom_0" pos="2.00" speed="10.00" angle="90.87" x="68.02" y="-4.80"/>
        <vehicle id="rlleft.0" eclass="HBEFA2/P_7_7" CO2="1680.07" CO="0.00" HC="0.29" NOx="2.67" PMx="0.10" fuel="0.67" electricity="0.00" noise="61.77" route="routeleft" type="rl" waiting="0.00" lane="left_0" pos="2.00" speed="10.00" angle="180.88" x="-4.80" y="59.35"/>
        <vehicle id="rlright.0" eclass="HBEFA2/P_7_7" CO2="1680.07" CO="0.00" HC="0.29" NOx="2.67" PMx="0.10" fuel="0.67" electricity="0.00" noise="61.77" route="routeright" type="rl" waiting="0.00" lane="right_0" pos="2.00" speed="10.00" angle="0.88" x="132.13" y="67.98"/>
        <vehicle id="rltop.0" eclass="HBEFA2/P_7_7" CO2="1680.07" CO="0.00" HC="0.29" NOx="2.67" PMx="0.10" fuel="0.67" electricity="0.00" noise="61.77" route="routetop" type="rl" waiting="0.00" lane="top_0" pos="2.00" speed="10.00" angle="270.88" x="59.35" y="132.13"/>
    </timestep>
    <timestep time="0.30">
        <vehicle id="rlbottom.0" eclass="HBEFA2/P_7_7" CO2="1680.07" CO="0.00" HC="0.29" NOx="2.67" PMx="0.10" fuel="0.67" electricity="0.00" noise="61.77" route="routebottom" type="rl" waiting="0.00" lane="bottom_0" pos="3.00" speed="10.00" angle="89.10" x="70.16" y="-4.63"/>
        <vehicle id="rlleft.0" eclass="HBEFA2/P_7_7" CO2="1680.07" CO="0.00" HC="0.29" NOx="2.67" PMx="0.10" fuel="0.67" electricity="0.00" noise="61.77" route="routeleft" type="rl" waiting="0.00" lane="left_0" pos="3.00" speed="10.00" angle="179.12" x="-4.63" y="57.20"/>
        <vehicle id="rlright.0" eclass="HBEFA2/P_7_7" CO2="1680.07" CO="0.00" HC="0.29" NOx="2.67" PMx="0.10" fuel="0.67" electricity="0.00" noise="61.77" route="routeright" type="rl" waiting="0.00" lane="right_0" pos="3.00" speed="10.00" angle="359.12" x="131.96" y="70.13"/>
        <vehicle id="rltop.0" eclass="HBEFA2/P_7_7" CO2="1680.07" CO="0.00" HC="0.29" NOx="2.67" PMx="0.10" fuel="0.67" electricity="0.00" noise="61.77" route="routetop" type="rl" waiting="0.00" lane="top_0" pos="3.00" speed="10.00" angle="269.12" x="57.20" y="131.96"/>
    </timestep>
    <timestep time="0.40">
        <vehicle id="rlbottom.0" eclass="HBEFA2/P_7_7" CO2="1680.07" CO="0.00" HC="0.29" NOx="2.67" PMx="0.10" fuel="0.67" electricity="0.00" noise="61.77" route="routebottom" type="rl" waiting="0.00" lane="bottom_0" pos="4.00" speed="10.00" angle="87.32" x="72.30" y="-4.40"/>
        <vehicle id="rlleft.0" eclass="HBEFA2/P_7_7" CO2="1680.07" CO="0.00" HC="0.29" NOx="2.67" PMx="0.10" fuel="0.67" electricity="0.00" noise="61.77" route="routeleft" type="rl" waiting="0.00" lane="left_0" pos="4.00" speed="10.00" angle="177.35" x="-4.40" y="55.06"/>
        <vehicle id="rlright.0" eclass="HBEFA2/P_7_7" CO2="1680.07" CO="0.00" HC="0.29" NOx="2.67" PMx="0.10" fuel="0.67" electricity="0.00" noise="61.77" route="routeright" type="rl" waiting="0.00" lane="right_0" pos="4.00" speed="10.00" angle="357.34" x="131.73" y="72.27"/>
        <vehicle id="rltop.0" eclass="HBEFA2/P_7_7" CO2="1680.07" CO="0.00" HC="0.29" NOx="2.67" PMx="0.10" fuel="0.67" electricity="0.00" noise="61.77" route="routetop" type="rl" waiting="0.00" lane="top_0" pos="4.00" speed="10.00" angle="267.35" x="55.06" y="131.73"/>
    </timestep>
    <timestep time="0.50">
        <vehicle id="rlbottom.0" eclass="HBEFA2/P_7_7" CO2="1680.07" CO="0.00" HC="0.29" NOx="2.67" PMx="0.10" fuel="0.67" electricity="0.00" noise="61.77" route="routebottom" type="rl" waiting="0.00" lane="bottom_0" pos="5.00" speed="10.00" angle="85.47" x="74.44" y="-4.10"/>
        <vehicle id="rlleft.0" eclass="HBEFA2/P_7_7" CO2="1680.07" CO="0.00" HC="0.29" NOx="2.67" PMx="0.10" fuel="0.67" electricity="0.00" noise="61.77" route="routeleft" type="rl" waiting="0.00" lane="left_0" pos="5.00" speed="10.00" angle="175.51" x="-4.11" y="52.93"/>
        <vehicle id="rlright.0" eclass="HBEFA2/P_7_7" CO2="1680.07" CO="0.00" HC="0.29" NOx="2.67" PMx="0.10" fuel="0.67" electricity="0.00" noise="61.77" route="routeright" type="rl" waiting="0.00" lane="right_0" pos="5.00" speed="10.00" angle="355.51" x="131.43" y="74.40"/>
        <vehicle id="rltop.0" eclass="HBEFA2/P_7_7" CO2="1680.07" CO="0.00" HC="0.29" NOx="2.67" PMx="0.10" fuel="0.67" electricity="0.00" noise="61.77" route="routetop" type="rl" waiting="0.00" lane="top_0" pos="5.00" speed="10.00" angle="265.52" x="52.93" y="131.43"/>
    </timestep>
    <timestep time="0.60">
        <vehicle id="rlbottom.0" eclass="HBEFA2/P_7_7" CO2="1680.07" CO="0.00" HC="0.29" NOx="2.67" PMx="0.10" fuel="0.67" electricity="0.00" noise="61.77" route="routebottom" type="rl" waiting="0.00" lane="bottom_0" pos="6.00" speed="10.00" angle="83.70" x="76.56" y="-3.72"/>
        <vehicle id="rlleft.0" eclass="HBEFA2/P_7_7" CO2="1680.07" CO="0.00" HC="0.29" NOx="2.67" PMx="0.10" fuel="0.67" electricity="0.00" noise="61.77" route="routeleft" type="rl" waiting="0.00" lane="left_0" pos="6.00" speed="10.00" angle="173.74" x="-3.73" y="50.80"/>
        <vehicle id="rlright.0" eclass="HBEFA2/P_7_7" CO2="1680.07" CO="0.00" HC="0.29" NOx="2.67" PMx="0.10" fuel="0.67" electricity="0.00" noise="61.77" route="routeright" type="rl" waiting="0.00" lane="right_0" pos="6.00" speed="10.00" angle="353.69" x="131.05" y="76.52"/>
        <vehicle id="rltop.0" eclass="HBEFA2/P_7_7" CO2="1680.07" CO="0.00" HC="0.29" NOx="2.67" PMx="0.10" fuel="0.67" electricity="0.00" noise="61.77" route="routetop" type="rl" waiting="0.00" lane="top_0" pos="6.00" speed="10.00" angle="263.70" x="50.81" y="131.05"/>
    </timestep>
    <timestep time="0.70">
        <vehicle id="rlbottom.0" eclass="HBEFA2/P_7_7" CO2="1680.07" CO="0.00" HC="0.29" NOx="2.67" PMx="0.10" fuel="0.67" electricity="0.00" noise="61.77" route="routebottom" type="rl" waiting="0.00" lane="bottom_0" pos="7.00" speed="10.00" angle="81.87" x="78.67" y="-3.28"/>
        <vehicle id="rlleft.0" eclass="HBEFA2/P_7_7" CO2="1680.07" CO="0.00" HC="0.29" NOx="2.67" PMx="0.10" fuel="0.67" electricity="0.00" noise="61.77" route="routeleft" type="rl" waiting="0.00" lane="left_0" pos="7.00" speed="10.00" angle="171.91" x="-3.28" y="48.70"/>
        <vehicle id="rlright.0" eclass="HBEFA2/P_7_7" CO2="1680.07" CO="0.00" HC="0.29" NOx="2.67" PMx="0.10" fuel="0.67" electricity="0.00" noise="61.77" route="routeright" type="rl" waiting="0.00" lane="right_0" pos="7.00" speed="10.00" angle="351.87" x="130.61" y="78.63"/>
        <vehicle id="rltop.0" eclass="HBEFA2/P_7_7" CO2="1680.07" CO="0.00" HC="0.29" NOx="2.67" PMx="0.10" fuel="0.67" electricity="0.00" noise="61.77" route="routetop" type="rl" waiting="0.00" lane="top_0" pos="7.00" speed="10.00" angle="261.88" x="48.70" y="130.61"/>
    </timestep>
    <timestep time="0.80">
        <vehicle id="rlbottom.0" eclass="HBEFA2/P_7_7" CO2="1680.07" CO="0.00" HC="0.29" NOx="2.67" PMx="0.10" fuel="0.67" electricity="0.00" noise="61.77" route="routebottom" type="rl" waiting="0.00" lane="bottom_0" pos="8.00" speed="10.00" angle="80.05" x="80.76" y="-2.77"/>
        <vehicle id="rlleft.0" eclass="HBEFA2/P_7_7" CO2="1680.07" CO="0.00" HC="0.29" NOx="2.67" PMx="0.10" fuel="0.67" electricity="0.00" noise="61.77" route="routeleft" type="rl" waiting="0.00" lane="left_0" pos="8.00" speed="10.00" angle="170.08" x="-2.78" y="46.60"/>
        <vehicle id="rlright.0" eclass="HBEFA2/P_7_7" CO2="1680.07" CO="0.00" HC="0.29" NOx="2.67" PMx="0.10" fuel="0.67" electricity="0.00" noise="61.77" route="routeright" type="rl" waiting="0.00" lane="right_0" pos="8.00" speed="10.00" angle="350.08" x="130.11" y="80.73"/>
        <vehicle id="rltop.0" eclass="HBEFA2/P_7_7" CO2="1680.07" CO="0.00" HC="0.29" NOx="2.67" PMx="0.10" fuel="0.67" electricity="0.00" noise="61.77" route="routetop" type="rl" waiting="0.00" lane="top_0" pos="8.00" speed="10.00" angle="260.08" x="46.60" y="130.11"/>
    </timestep>
    <timestep time="0.90">
        <vehicle id="rlbottom.0" eclass="HBEFA2/P_7_7" CO2="1680.07" CO="0.00" HC="0.29" NOx="2.67" PMx="0.10" fuel="0.67" electricity="0.00" noise="61.77" route="routebottom" type="rl" waiting="0.00" lane="bottom_0" pos="9.00" speed="10.00" angle="78.26" x="82.84" y="-2.21"/>
        <vehicle id="rlleft.0" eclass="HBEFA2/P_7_7" CO2="1680.07" CO="0.00" HC="0.29" NOx="2.67" PMx="0.10" fuel="0.67" electricity="0.00" noise="61.77" route="routeleft" type="rl" waiting="0.00" lane="left_0" pos="9.00" speed="10.00" angle="168.30" x="-2.22" y="44.52"/>
        <vehicle id="rlright.0" eclass="HBEFA2/P_7_7" CO2="1680.07" CO="0.00" HC="0.29" NOx="2.67" PMx="0.10" fuel="0.67" electricity="0.00" noise="61.77" route="routeright" type="rl" waiting="0.00" lane="right_0" pos="9.00" speed="10.00" angle="348.30" x="129.55" y="82.81"/>
        <vehicle id="rltop.0" eclass="HBEFA2/P_7_7" CO2="1680.07" CO="0.00" HC="0.29" NOx="2.67" PMx="0.10" fuel="0.67" electricity="0.00" noise="61.77" route="routetop" type="rl" waiting="0.00" lane="top_0" pos="9.00" speed="10.00" angle="258.31" x="44.52" y="129.55"/>
    </timestep>
    <timestep time="1.00">
        <vehicle id="rlbottom.0" eclass="HBEFA2/P_7_7" CO2="1680.07" CO="0.00" HC="0.29" NOx="2.67" PMx="0.10" fuel="0.67" electricity="0.00" noise="61.77" route="routebottom" type="rl" waiting="0.00" lane="bottom_0" pos="10.00" speed="10.00" angle="76.42" x="84.90" y="-1.57"/>
        <vehicle id="rlbottom.1" eclass="HBEFA2/P_7_7" CO2="601.69" CO="6.37" HC="0.35" NOx="0.84" PMx="0.02" fuel="0.24" electricity="0.00" noise="55.94" route="routebottom" type="rl" waiting="0.00" lane="bottom_0" pos="38.22" speed="0.00" angle="25.67" x="127.62" y="38.85"/>
        <vehicle id="rlleft.0" eclass="HBEFA2/P_7_7" CO2="1680.07" CO="0.00" HC="0.29" NOx="2.67" PMx="0.10" fuel="0.67" electricity="0.00" noise="61.77" route="routeleft" type="rl" waiting="0.00" lane="left_0" pos="10.00" speed="10.00" angle="166.45" x="-1.58" y="42.46"/>
        <vehicle id="rlleft.1" eclass="HBEFA2/P_7_7" CO2="601.69" CO="6.37" HC="0.35" NOx="0.84" PMx="0.02" fuel="0.24" electricity="0.00" noise="55.94" route="routeleft" type="rl" waiting="0.00" lane="left_0" pos="38.22" speed="0.00" angle="115.69" x="38.84" y="-0.29"/>
        <vehicle id="rlright.0" eclass="HBEFA2/P_7_7" CO2="1680.07" CO="0.00" HC="0.29" NOx="2.67" PMx="0.10" fuel="0.67" electricity="0.00" noise="61.77" route="routeright" type="rl" waiting="0.00" lane="right_0" pos="10.00" speed="10.00" angle="346.50" x="128.91" y="84.87"/>
        <vehicle id="rlright.1" eclass="HBEFA2/P_7_7" CO2="601.69" CO="6.37" HC="0.35" NOx="0.84" PMx="0.02" fuel="0.24" electricity="0.00" noise="55.94" route="routeright" type="rl" waiting="0.00" lane="right_0" pos="38.22" speed="0.00" angle="295.69" x="88.49" y="127.61"/>
        <vehicle id="rltop.0" eclass="HBEFA2/P_7_7" CO2="1680.07" CO="0.00" HC="0.29" NOx="2.67" PMx="0.10" fuel="0.67" electricity="0.00" noise="61.77" route="routetop" type="rl" waiting="0.00" lane="top_0" pos="10.00" speed="10.00" angle="256.49" x="42.46" y="128.91"/>
        <vehicle id="rltop.1" eclass="HBEFA2/P_7_7" CO2="601.69" CO="6.37" HC="0.35" NOx="0.84" PMx="0.02" fuel="0.24" electricity="0.00" noise="55.94" route="routetop" type="rl" waiting="0.00" lane="top_0" pos="38.22" speed="0.00" angle="205.70" x="-0.29" y="88.49"/>
    </timestep>
    <timestep time="1.10">
        <vehicle id="rlbottom.0" eclass="HBEFA2/P_7_7" CO2="1680.07" CO="0.00" HC="0.29" NOx="2.67" PMx="0.10" fuel="0.67" electricity="0.00" noise="61.77" route="routebottom" type="rl" waiting="0.00" lane="bottom_0" pos="11.00" speed="10.00" angle="74.63" x="86.93" y="-0.87"/>
        <vehicle id="rlbottom.1" eclass="HBEFA2/P_7_7" CO2="0.00" CO="0.00" HC="0.00" NOx="0.00" PMx="0.00" fuel="0.00" electricity="0.00" noise="500.04" route="routebottom" type="rl" waiting="0.00" lane="bottom_0" pos="39.22" speed="10.00" angle="23.92" x="128.37" y="40.87"/>
        <vehicle id="rlleft.0" eclass="HBEFA2/P_7_7" CO2="1680.07" CO="0.00" HC="0.29" NOx="2.67" PMx="0.10" fuel="0.67" electricity="0.00" noise="61.77" route="routeleft" type="rl" waiting="0.00" lane="left_0" pos="11.00" speed="10.00" angle="164.66" x="-0.88" y="40.42"/>
        <vehicle id="rlleft.1" eclass="HBEFA2/P_7_7" CO2="0.00" CO="0.00" HC="0.00" NOx="0.00" PMx="0.00" fuel="0.00" electricity="0.00" noise="500.04" route="routeleft" type="rl" waiting="0.00" lane="left_0" pos="39.22" speed="10.00" angle="113.90" x="40.86" y="-1.04"/>
        <vehicle id="rlright.0" eclass="HBEFA2/P_7_7" CO2="1680.07" CO="0.00" HC="0.29" NOx="2.67" PMx="0.10" fuel="0.67" electricity="0.00" noise="61.77" route="routeright" type="rl" waiting="0.00" lane="right_0" pos="11.00" speed="10.00" angle="344.68" x="128.20" y="86.90"/>
        <vehicle id="rlright.1" eclass="HBEFA2/P_7_7" CO2="0.00" CO="0.00" HC="0.00" NOx="0.00" PMx="0.00" fuel="0.00" electricity="0.00" noise="500.04" route="routeright" type="rl" waiting="0.00" lane="right_0" pos="39.22" speed="10.00" angle="293.93" x="86.47" y="128.36"/>
        <vehicle id="rltop.0" eclass="HBEFA2/P_7_7" CO2="1680.07" CO="0.00" HC="0.29" NOx="2.67" PMx="0.10" fuel="0.67" electricity="0.00" noise="61.77" route="routetop" type="rl" waiting="0.00" lane="top_0" pos="11.00" speed="10.00" angle="254.68" x="40.43" y="128.21"/>
        <vehicle id="rltop.1" eclass="HBEFA2/P_7_7" CO2="0.00" CO="0.00" HC="0.00" NOx="0.00" PMx="0.00" fuel="0.00" electricity="0.00" noise="500.04" route="routetop" type="rl" waiting="0.00" lane="top_0" pos="39.22" speed="10.00" angle="203.90" x="-1.04" y="86.47"/>
    </timestep>
    <timestep time="1.20">
        <vehicle id="rlbottom.0" eclass="HBEFA2/P_7_7" CO2="1680.07" CO="0.00" HC="0.29" NOx="2.67" PMx="0.10" fuel="0.67" electricity="0.00" noise="61.77" route="routebottom" type="rl" waiting="0.00" lane="bottom_0" pos="12.00" speed="10.00" angle="72.87" x="88.95" y="-0.11"/>
        <vehicle id="rlbottom.1" eclass="HBEFA2/P_7_7" CO2="1680.07" CO="0.00" HC="0.29" NOx="2.67" PMx="0.10" fuel="0.67" electricity="0.00" noise="61.77" route="routebottom" type="rl" waiting="0.00" lane="bottom_0" pos="40.22" speed="10.00" angle="22.12" x="129.05" y="42.91"/>
        <vehicle id="rlleft.0" eclass="HBEFA2/P_7_7" CO2="1680.07" CO="0.00" HC="0.29" NOx="2.67" PMx="0.10" fuel="0.67" electricity="0.00" noise="61.77" route="routeleft" type="rl" waiting="0.00" lane="left_0" pos="12.00" speed="10.00" angle="162.91" x="-0.12" y="38.41"/>
        <vehicle id="rlleft.1" eclass="HBEFA2/P_7_7" CO2="1680.07" CO="0.00" HC="0.29" NOx="2.67" PMx="0.10" fuel="0.67" electricity="0.00" noise="61.77" route="routeleft" type="rl" waiting="0.00" lane="left_0" pos="40.22" speed="10.00" angle="112.11" x="42.90" y="-1.72"/>
        <vehicle id="rlright.0" eclass="HBEFA2/P_7_7" CO2="1680.07" CO="0.00" HC="0.29" NOx="2.67" PMx="0.10" fuel="0.67" electricity="0.00" noise="61.77" route="routeright" type="rl" waiting="0.00" lane="right_0" pos="12.00" speed="10.00" angle="342.88" x="127.44" y="88.92"/>
        <vehicle id="rlright.1" eclass="HBEFA2/P_7_7" CO2="1680.07" CO="0.00" HC="0.29" NOx="2.67" PMx="0.10" fuel="0.67" electricity="0.00" noise="61.77" route="routeright" type="rl" waiting="0.00" lane="right_0" pos="40.22" speed="10.00" angle="292.14" x="84.43" y="129.05"/>
        <vehicle id="rltop.0" eclass="HBEFA2/P_7_7" CO2="1680.07" CO="0.00" HC="0.29" NOx="2.67" PMx="0.10" fuel="0.67" electricity="0.00" noise="61.77" route="routetop" type="rl" waiting="0.00" lane="top_0" pos="12.00" speed="10.00" angle="252.89" x="38.41" y="127.44"/>
        <vehicle id="rltop.1" eclass="HBEFA2/P_7_7" CO2="1680.07" CO="0.00" HC="0.29" NOx="2.67" PMx="0.10" fuel="0.67" electricity="0.00" noise="61.77" route="routetop" type="rl" waiting="0.00" lane="top_0" pos="40.22" speed="10.00" angle="202.11" x="-1.72" y="84.43"/>
    </timestep>
    <timestep time="1.30">
        <vehicle id="rlbottom.0" eclass="HBEFA2/P_7_7" CO2="1680.07" CO="0.00" HC="0.29" NOx="2.67" PMx="0.10" fuel="0.67" electricity="0.00" noise="61.77" route="routebottom" type="rl" waiting="0.00" lane="bottom_0" pos="13.00" speed="10.00" angle="71.12" x="90.94" y="0.71"/>
        <vehicle id="rlbottom.1" eclass="HBEFA2/P_7_7" CO2="1680.07" CO="0.00" HC="0.29" NOx="2.67" PMx="0.10" fuel="0.67" electricity="0.00" noise="61.77" route="routebottom" type="rl" waiting="0.00" lane="bottom_0" pos="41.22" speed="10.00" angle="20.30" x="129.68" y="44.97"/>
        <vehicle id="rlleft.0" eclass="HBEFA2/P_7_7" CO2="1680.07" CO="0.00" HC="0.29" NOx="2.67" PMx="0.10" fuel="0.67" electricity="0.00" noise="61.77" route="routeleft" type="rl" waiting="0.00" lane="left_0" pos="13.00" speed="10.00" angle="161.17" x="0.70" y="36.41"/>
        <vehicle id="rlleft.1" eclass="HBEFA2/P_7_7" CO2="1680.07" CO="0.00" HC="0.29" NOx="2.67" PMx="0.10" fuel="0.67" electricity="0.00" noise="61.77" route="routeleft" type="rl" waiting="0.00" lane="left_0" pos="41.22" speed="10.00" angle="110.29" x="44.97" y="-2.34"/>
        <vehicle id="rlright.0" eclass="HBEFA2/P_7_7" CO2="1680.07" CO="0.00" HC="0.29" NOx="2.67" PMx="0.10" fuel="0.67" electricity="0.00" noise="61.77" route="routeright" type="rl" waiting="0.00" lane="right_0" pos="13.00" speed="10.00" angle="341.11" x="126.62" y="90.91"/>
        <vehicle id="rlright.1" eclass="HBEFA2/P_7_7" CO2="1680.07" CO="0.00" HC="0.29" NOx="2.67" PMx="0.10" fuel="0.67" electricity="0.00" noise="61.77" route="routeright" type="rl" waiting="0.00" lane="right_0" pos="41.22" speed="10.00" angle="290.32" x="82.36" y="129.67"/>
        <vehicle id="rltop.0" eclass="HBEFA2/P_7_7" CO2="1680.07" CO="0.00" HC="0.29" NOx="2.67" PMx="0.10" fuel="0.67" electricity="0.00" noise="61.77" route="routetop" type="rl" waiting="0.00" lane="top_0" pos="13.00" speed="10.00" angle="251.13" x="36.42" y="126.63"/>
        <vehicle id="rltop.1" eclass="HBEFA2/P_7_7" CO2="1680.07" CO="0.00" HC="0.29" NOx="2.67" PMx="0.10" fuel="0.67" electricity="0.00" noise="61.77" route="routetop" type="rl" waiting="0.00" lane="top_0" pos="41.22" speed="10.00" angle="200.30" x="-2.34" y="82.36"/>
    </timestep>
    <timestep time="1.40">
        <vehicle id="rlbottom.0" eclass="HBEFA2/P_7_7" CO2="1680.07" CO="0.00" HC="0.29" NOx="2.67" PMx="0.10" fuel="0.67" electricity="0.00" noise="61.77" route="routebottom" type="rl" waiting="0.00" lane="bottom_0" pos="14.00" speed="10.00" angle="69.29" x="92.91" y="1.60"/>
        <vehicle id="rlbottom.1" eclass="HBEFA2/P_7_7" CO2="1680.07" CO="0.00" HC="0.29" NOx="2.67" PMx="0.10" fuel="0.67" electricity="0.00" noise="61.77" route="routebottom" type="rl" waiting="0.00" lane="bottom_0" pos="42.22" speed="10.00" angle="18.49" x="130.23" y="47.06"/>
        <vehicle id="rlleft.0" eclass="HBEFA2/P_7_7" CO2="1680.07" CO="0.00" HC="0.29" NOx="2.67" PMx="0.10" fuel="0.67" electricity="0.00" noise="61.77" route="routeleft" type="rl" waiting="0.00" lane="left_0" pos="14.00" speed="10.00" angle="159.32" x="1.58" y="34.45"/>
        <vehicle id="rlleft.1" eclass="HBEFA2/P_7_7" CO2="1680.07" CO="0.00" HC="0.29" NOx="2.67" PMx="0.10" fuel="0.67" electricity="0.00" noise="61.77" route="routeleft" type="rl" waiting="0.00" lane="left_0" pos="42.22" speed="10.00" angle="108.45" x="47.05" y="-2.90"/>
        <vehicle id="rlright.0" eclass="HBEFA2/P_7_7" CO2="1680.07" CO="0.00" HC="0.29" NOx="2.67" PMx="0.10" fuel="0.67" electricity="0.00" noise="61.77" route="routeright" type="rl" waiting="0.00" lane="right_0" pos="14.00" speed="10.00" angle="339.31" x="125.75" y="92.88"/>
        <vehicle id="rlright.1" eclass="HBEFA2/P_7_7" CO2="1680.07" CO="0.00" HC="0.29" NOx="2.67" PMx="0.10" fuel="0.67" electricity="0.00" noise="61.77" route="routeright" type="rl" waiting="0.00" lane="right_0" pos="42.22" speed="10.00" angle="288.51" x="80.28" y="130.23"/>
        <vehicle id="rltop.0" eclass="HBEFA2/P_7_7" CO2="1680.07" CO="0.00" HC="0.29" NOx="2.67" PMx="0.10" fuel="0.67" electricity="0.00" noise="61.77" route="routetop" type="rl" waiting="0.00" lane="top_0" pos="14.00" speed="10.00" angle="249.31" x="34.45" y="125.75"/>
        <vehicle id="rltop.1" eclass="HBEFA2/P_7_7" CO2="1680.07" CO="0.00" HC="0.29" NOx="2.67" PMx="0.10" fuel="0.67" electricity="0.00" noise="61.77" route="routetop" type="rl" waiting="0.00" lane="top_0" pos="42.22" speed="10.00" angle="198.46" x="-2.90" y="80.28"/>
    </timestep>
    <timestep time="1.50">
        <vehicle id="rlbottom.0" eclass="HBEFA2/P_7_7" CO2="1680.07" CO="0.00" HC="0.29" NOx="2.67" PMx="0.10" fuel="0.67" electricity="0.00" noise="61.77" route="routebottom" type="rl" waiting="0.00" lane="bottom_0" pos="15.00" speed="10.00" angle="67.46" x="94.84" y="2.55"/>
        <vehicle id="rlbottom.1" eclass="HBEFA2/P_7_7" CO2="1680.07" CO="0.00" HC="0.29" NOx="2.67" PMx="0.10" fuel="0.67" electricity="0.00" noise="61.77" route="routebottom" type="rl" waiting="0.00" lane="bottom_0" pos="43.22" speed="10.00" angle="16.72" x="130.71" y="49.15"/>
        <vehicle id="rlleft.0" eclass="HBEFA2/P_7_7" CO2="1680.07" CO="0.00" HC="0.29" NOx="2.67" PMx="0.10" fuel="0.67" electricity="0.00" noise="61.77" route="routeleft" type="rl" waiting="0.00" lane="left_0" pos="15.00" speed="10.00" angle="157.49" x="2.54" y="32.52"/>
        <vehicle id="rlleft.1" eclass="HBEFA2/P_7_7" CO2="1680.07" CO="0.00" HC="0.29" NOx="2.67" PMx="0.10" fuel="0.67" electricity="0.00" noise="61.77" route="routeleft" type="rl" waiting="0.00" lane="left_0" pos="43.22" speed="10.00" angle="106.71" x="49.15" y="-3.39"/>
        <vehicle id="rlright.0" eclass="HBEFA2/P_7_7" CO2="1680.07" CO="0.00" HC="0.29" NOx="2.67" PMx="0.10" fuel="0.67" electricity="0.00" noise="61.77" route="routeright" type="rl" waiting="0.00" lane="right_0" pos="15.00" speed="10.00" angle="337.45" x="124.79" y="94.81"/>
        <vehicle id="rlright.1" eclass="HBEFA2/P_7_7" CO2="1680.07" CO="0.00" HC="0.29" NOx="2.67" PMx="0.10" fuel="0.67" electricity="0.00" noise="61.77" route="routeright" type="rl" waiting="0.00" lane="right_0" pos="43.22" speed="10.00" angle="286.73" x="78.18" y="130.71"/>
        <vehicle id="rltop.0" eclass="HBEFA2/P_7_7" CO2="1680.07" CO="0.00" HC="0.29" NOx="2.67" PMx="0.10" fuel="0.67" electricity="0.00" noise="61.77" route="routetop" type="rl" waiting="0.00" lane="top_0" pos="15.00" speed="10.00" angle="247.46" x="32.52" y="124.79"/>
        <vehicle id="rltop.1" eclass="HBEFA2/P_7_7" CO2="1680.07" CO="0.00" HC="0.29" NOx="2.67" PMx="0.10" fuel="0.67" electricity="0.00" noise="61.77" route="routetop" type="rl" waiting="0.00" lane="top_0" pos="43.22" speed="10.00" angle="196.72" x="-3.39" y="78.18"/>
    </timestep>
    <timestep time="1.60">
        <vehicle id="rlbottom.0" eclass="HBEFA2/P_7_7" CO2="1680.07" CO="0.00" HC="0.29" NOx="2.67" PMx="0.10" fuel="0.67" electricity="0.00" noise="61.77" route="routebottom" type="rl" waiting="0.00" lane="bottom_0" pos="16.00" speed="10.00" angle="65.67" x="96.74" y="3.56"/>
        <vehicle id="rlbottom.1" eclass="HBEFA2/P_7_7" CO2="1680.07" CO="0.00" HC="0.29" NOx="2.67" PMx="0.10" fuel="0.67" electricity="0.00" noise="61.77" route="routebottom" type="rl" waiting="0.00" lane="bottom_0" pos="44.22" speed="10.00" angle="14.90" x="131.13" y="51.27"/>
        <vehicle id="rlleft.0" eclass="HBEFA2/P_7_7" CO2="1680.07" CO="0.00" HC="0.29" NOx="2.67" PMx="0.10" fuel="0.67" electricity="0.00" noise="61.77" route="routeleft" type="rl" waiting="0.00" lane="left_0" pos="16.00" speed="10.00" angle="155.70" x="3.55" y="30.61"/>
        <vehicle id="rlleft.1" eclass="HBEFA2/P_7_7" CO2="1680.07" CO="0.00" HC="0.29" NOx="2.67" PMx="0.10" fuel="0.67" electricity="0.00" noise="61.77" route="routeleft" type="rl" waiting="0.00" lane="left_0" pos="44.22" speed="10.00" angle="104.94" x="51.26" y="-3.81"/>
        <vehicle id="rlright.0" eclass="HBEFA2/P_7_7" CO2="1680.07" CO="0.00" HC="0.29" NOx="2.67" PMx="0.10" fuel="0.67" electricity="0.00" noise="61.77" route="routeright" type="rl" waiting="0.00" lane="right_0" pos="16.00" speed="10.00" angle="335.68" x="123.77" y="96.71"/>
        <vehicle id="rlright.1" eclass="HBEFA2/P_7_7" CO2="1680.07" CO="0.00" HC="0.29" NOx="2.67" PMx="0.10" fuel="0.67" electricity="0.00" noise="61.77" route="routeright" type="rl" waiting="0.00" lane="right_0" pos="44.22" speed="10.00" angle="284.91" x="76.07" y="131.13"/>
        <vehicle id="rltop.0" eclass="HBEFA2/P_7_7" CO2="1680.07" CO="0.00" HC="0.29" NOx="2.67" PMx="0.10" fuel="0.67" electricity="0.00" noise="61.77" route="routetop" type="rl" waiting="0.00" lane="top_0" pos="16.00" speed="10.00" angle="245.68" x="30.62" y="123.77"/>
        <vehicle id="rltop.1" eclass="HBEFA2/P_7_7" CO2="1680.07" CO="0.00" HC="0.29" NOx="2.67" PMx="0.10" fuel="0.67" electricity="0.00" noise="61.77" route="routetop" type="rl" waiting="0.00" lane="top_0" pos="44.22" speed="10.00" angle="194.94" x="-3.81" y="76.07"/>
    </timestep>
    <timestep time="1.70">
        <vehicle id="rlbottom.0" eclass="HBEFA2/P_7_7" CO2="1680.07" CO="0.00" HC="0.29" NOx="2.67" PMx="0.10" fuel="0.67" electricity="0.00" noise="61.77" route="routebottom" type="rl" waiting="0.00" lane="bottom_0" pos="17.00" speed="10.00" angle="63.88" x="98.61" y="4.63"/>
        <vehicle id="rlbottom.1" eclass="HBEFA2/P_7_7" CO2="1680.07" CO="0.00" HC="0.29" NOx="2.67" PMx="0.10" fuel="0.67" electricity="0.00" noise="61.77" route="routebottom" type="rl" waiting="0.00" lane="bottom_0" pos="45.22" speed="10.00" angle="13.11" x="131.49" y="53.39"/>
        <vehicle id="rlleft.0" eclass="HBEFA2/P_7_7" CO2="1680.07" CO="0.00" HC="0.29" NOx="2.67" PMx="0.10" fuel="0.67" electricity="0.00" noise="61.77" route="routeleft" type="rl" waiting="0.00" lane="left_0" pos="17.00" speed="10.00" angle="153.91" x="4.61" y="28.74"/>
        <vehicle id="rlleft.1" eclass="HBEFA2/P_7_7" CO2="1680.07" CO="0.00" HC="0.29" NOx="2.67" PMx="0.10" fuel="0.67" electricity="0.00" noise="61.77" route="routeleft" type="rl" waiting="0.00" lane="left_0" pos="45.22" speed="10.00" angle="103.15" x="53.39" y="-4.17"/>
        <vehicle id="rlright.0" eclass="HBEFA2/P_7_7" CO2="1680.07" CO="0.00" HC="0.29" NOx="2.67" PMx="0.10" fuel="0.67" electricity="0.00" noise="61.77" route="routeright" type="rl" waiting="0.00" lane="right_0" pos="17.00" speed="10.00" angle="333.92" x="122.71" y="98.58"/>