<?xml version="1.0" encoding="UTF-8"?>

<!-- generated on Wed Feb  1 12:00:14 2017 by SUMO gui Version 0.27.1
<?xml version="1.0" encoding="UTF-8"?>

<configuration xmlns:xsi="http://www.w3.org/2001/XMLSchema-instance" xsi:noNamespaceSchemaLocation="http://sumo.dlr.de/xsd/sumo-gui.exeConfiguration.xsd">

    <input>
        <net-file value="debug/cfg/test-exp-200m2l.net.xml"/>
        <route-files value="debug/cfg/test-exp-200m2l.rou.xml"/>
        <additional-files value="debug/cfg/test-exp-200m2l.add.xml"/>
    </input>

    <output>
        <netstate-dump value="debug/cfg/data/test-exp-200m2l.netstate.xml"/>
        <emission-output value="debug/cfg/data/test-exp-200m2l.emission.xml"/>
        <amitran-output value="debug/cfg/data/test-exp-200m2l.amitran.xml"/>
        <lanechange-output value="debug/cfg/data/test-exp-200m2l.lanechange.xml"/>
    </output>

    <time>
        <begin value="0"/>
        <end value="3000"/>
        <step-length value="0.1"/>
    </time>

    <traci_server>
        <remote-port value="8873"/>
    </traci_server>

    <gui_only>
        <gui-settings-file value="debug/cfg/test-exp-200m2l.gui.cfg"/>
    </gui_only>

</configuration>
-->

<netstate xmlns:xsi="http://www.w3.org/2001/XMLSchema-instance" xsi:noNamespaceSchemaLocation="http://sumo.dlr.de/xsd/netstate_file.xsd">
    <timestep time="0.00">
        <edge id="bottom">
            <lane id="bottom_0">
                <vehicle id="rlbottom.0" pos="0.00" speed="0.00"/>
            </lane>
            <lane id="bottom_1"/>
        </edge>
        <edge id="left">
            <lane id="left_0">
                <vehicle id="rlleft.0" pos="0.00" speed="0.00"/>
            </lane>
            <lane id="left_1"/>
        </edge>
        <edge id="right">
            <lane id="right_0">
                <vehicle id="rlright.0" pos="0.00" speed="0.00"/>
            </lane>
            <lane id="right_1"/>
        </edge>
        <edge id="top">
            <lane id="top_0">
                <vehicle id="rltop.0" pos="0.00" speed="0.00"/>
            </lane>
            <lane id="top_1"/>
        </edge>
    </timestep>
    <timestep time="0.10">
        <edge id="bottom">
            <lane id="bottom_0">
                <vehicle id="rlbottom.0" pos="1.00" speed="10.00"/>
            </lane>
            <lane id="bottom_1"/>
        </edge>
        <edge id="left">
            <lane id="left_0">
                <vehicle id="rlleft.0" pos="1.00" speed="10.00"/>
            </lane>
            <lane id="left_1"/>
        </edge>
        <edge id="right">
            <lane id="right_0">
                <vehicle id="rlright.0" pos="1.00" speed="10.00"/>
            </lane>
            <lane id="right_1"/>
        </edge>
        <edge id="top">
            <lane id="top_0">
                <vehicle id="rltop.0" pos="1.00" speed="10.00"/>
            </lane>
            <lane id="top_1"/>
        </edge>
    </timestep>
    <timestep time="0.20">
        <edge id="bottom">
            <lane id="bottom_0">
                <vehicle id="rlbottom.0" pos="2.00" speed="10.00"/>
            </lane>
            <lane id="bottom_1"/>
        </edge>
        <edge id="left">
            <lane id="left_0">
                <vehicle id="rlleft.0" pos="2.00" speed="10.00"/>
            </lane>
            <lane id="left_1"/>
        </edge>
        <edge id="right">
            <lane id="right_0">
                <vehicle id="rlright.0" pos="2.00" speed="10.00"/>
            </lane>
            <lane id="right_1"/>
        </edge>
        <edge id="top">
            <lane id="top_0">
                <vehicle id="rltop.0" pos="2.00" speed="10.00"/>
            </lane>
            <lane id="top_1"/>
        </edge>
    </timestep>
    <timestep time="0.30">
        <edge id="bottom">
            <lane id="bottom_0">
                <vehicle id="rlbottom.0" pos="3.00" speed="10.00"/>
            </lane>
            <lane id="bottom_1"/>
        </edge>
        <edge id="left">
            <lane id="left_0">
                <vehicle id="rlleft.0" pos="3.00" speed="10.00"/>
            </lane>
            <lane id="left_1"/>
        </edge>
        <edge id="right">
            <lane id="right_0">
                <vehicle id="rlright.0" pos="3.00" speed="10.00"/>
            </lane>
            <lane id="right_1"/>
        </edge>
        <edge id="top">
            <lane id="top_0">
                <vehicle id="rltop.0" pos="3.00" speed="10.00"/>
            </lane>
            <lane id="top_1"/>
        </edge>
    </timestep>
    <timestep time="0.40">
        <edge id="bottom">
            <lane id="bottom_0">
                <vehicle id="rlbottom.0" pos="4.00" speed="10.00"/>
            </lane>
            <lane id="bottom_1"/>
        </edge>
        <edge id="left">
            <lane id="left_0">
                <vehicle id="rlleft.0" pos="4.00" speed="10.00"/>
            </lane>
            <lane id="left_1"/>
        </edge>
        <edge id="right">
            <lane id="right_0">
                <vehicle id="rlright.0" pos="4.00" speed="10.00"/>
            </lane>
            <lane id="right_1"/>
        </edge>
        <edge id="top">
            <lane id="top_0">
                <vehicle id="rltop.0" pos="4.00" speed="10.00"/>
            </lane>
            <lane id="top_1"/>
        </edge>
    </timestep>
    <timestep time="0.50">
        <edge id="bottom">
            <lane id="bottom_0">
                <vehicle id="rlbottom.0" pos="5.00" speed="10.00"/>
            </lane>
            <lane id="bottom_1"/>
        </edge>
        <edge id="left">
            <lane id="left_0">
                <vehicle id="rlleft.0" pos="5.00" speed="10.00"/>
            </lane>
            <lane id="left_1"/>
        </edge>
        <edge id="right">
            <lane id="right_0">
                <vehicle id="rlright.0" pos="5.00" speed="10.00"/>
            </lane>
            <lane id="right_1"/>
        </edge>
        <edge id="top">
            <lane id="top_0">
                <vehicle id="rltop.0" pos="5.00" speed="10.00"/>
            </lane>
            <lane id="top_1"/>
        </edge>
    </timestep>
    <timestep time="0.60">
        <edge id="bottom">
            <lane id="bottom_0">
                <vehicle id="rlbottom.0" pos="6.00" speed="10.00"/>
            </lane>
            <lane id="bottom_1"/>
        </edge>
        <edge id="left">
            <lane id="left_0">
                <vehicle id="rlleft.0" pos="6.00" speed="10.00"/>
            </lane>
            <lane id="left_1"/>
        </edge>
        <edge id="right">
            <lane id="right_0">
                <vehicle id="rlright.0" pos="6.00" speed="10.00"/>
            </lane>
            <lane id="right_1"/>
        </edge>
        <edge id="top">
            <lane id="top_0">
                <vehicle id="rltop.0" pos="6.00" speed="10.00"/>
            </lane>
            <lane id="top_1"/>
        </edge>
    </timestep>
    <timestep time="0.70">
        <edge id="bottom">
            <lane id="bottom_0">
                <vehicle id="rlbottom.0" pos="7.00" speed="10.00"/>
            </lane>
            <lane id="bottom_1"/>
        </edge>
        <edge id="left">
            <lane id="left_0">
                <vehicle id="rlleft.0" pos="7.00" speed="10.00"/>
            </lane>
            <lane id="left_1"/>
        </edge>
        <edge id="right">
            <lane id="right_0">
                <vehicle id="rlright.0" pos="7.00" speed="10.00"/>
            </lane>
            <lane id="right_1"/>
        </edge>
        <edge id="top">
            <lane id="top_0">
                <vehicle id="rltop.0" pos="7.00" speed="10.00"/>
            </lane>
            <lane id="top_1"/>
        </edge>
    </timestep>
    <timestep time="0.80">
        <edge id="bottom">
            <lane id="bottom_0">
                <vehicle id="rlbottom.0" pos="8.00" speed="10.00"/>
            </lane>
            <lane id="bottom_1"/>
        </edge>
        <edge id="left">
            <lane id="left_0">
                <vehicle id="rlleft.0" pos="8.00" speed="10.00"/>
            </lane>
            <lane id="left_1"/>
        </edge>
        <edge id="right">
            <lane id="right_0">
                <vehicle id="rlright.0" pos="8.00" speed="10.00"/>
            </lane>
            <lane id="right_1"/>
        </edge>
        <edge id="top">
            <lane id="top_0">
                <vehicle id="rltop.0" pos="8.00" speed="10.00"/>
            </lane>
            <lane id="top_1"/>
        </edge>
    </timestep>
    <timestep time="0.90">
        <edge id="bottom">
            <lane id="bottom_0">
                <vehicle id="rlbottom.0" pos="9.00" speed="10.00"/>
            </lane>
            <lane id="bottom_1"/>
        </edge>
        <edge id="left">
            <lane id="left_0">
                <vehicle id="rlleft.0" pos="9.00" speed="10.00"/>
            </lane>
            <lane id="left_1"/>
        </edge>
        <edge id="right">
            <lane id="right_0">
                <vehicle id="rlright.0" pos="9.00" speed="10.00"/>
            </lane>
            <lane id="right_1"/>
        </edge>
        <edge id="top">
            <lane id="top_0">
                <vehicle id="rltop.0" pos="9.00" speed="10.00"/>
            </lane>
            <lane id="top_1"/>
        </edge>
    </timestep>
    <timestep time="1.00">
        <edge id="bottom">
            <lane id="bottom_0">
                <vehicle id="rlbottom.0" pos="10.00" speed="10.00"/>
                <vehicle id="rlbottom.1" pos="38.22" speed="0.00"/>
            </lane>
            <lane id="bottom_1"/>
        </edge>
        <edge id="left">
            <lane id="left_0">
                <vehicle id="rlleft.0" pos="10.00" speed="10.00"/>
                <vehicle id="rlleft.1" pos="38.22" speed="0.00"/>
            </lane>
            <lane id="left_1"/>
        </edge>
        <edge id="right">
            <lane id="right_0">
                <vehicle id="rlright.0" pos="10.00" speed="10.00"/>
                <vehicle id="rlright.1" pos="38.22" speed="0.00"/>
            </lane>
            <lane id="right_1"/>
        </edge>
        <edge id="top">
            <lane id="top_0">
                <vehicle id="rltop.0" pos="10.00" speed="10.00"/>
                <vehicle id="rltop.1" pos="38.22" speed="0.00"/>
            </lane>
            <lane id="top_1"/>
        </edge>
    </timestep>
    <timestep time="1.10">
        <edge id="bottom">
            <lane id="bottom_0">
                <vehicle id="rlbottom.0" pos="11.00" speed="10.00"/>
                <vehicle id="rlbottom.1" pos="39.22" speed="10.00"/>
            </lane>
            <lane id="bottom_1"/>
        </edge>
        <edge id="left">
            <lane id="left_0">
                <vehicle id="rlleft.0" pos="11.00" speed="10.00"/>
                <vehicle id="rlleft.1" pos="39.22" speed="10.00"/>
            </lane>
            <lane id="left_1"/>
        </edge>
        <edge id="right">
            <lane id="right_0">
                <vehicle id="rlright.0" pos="11.00" speed="10.00"/>
                <vehicle id="rlright.1" pos="39.22" speed="10.00"/>
            </lane>
            <lane id="right_1"/>
        </edge>
        <edge id="top">
            <lane id="top_0">
                <vehicle id="rltop.0" pos="11.00" speed="10.00"/>
                <vehicle id="rltop.1" pos="39.22" speed="10.00"/>
            </lane>
            <lane id="top_1"/>
        </edge>
    </timestep>
    <timestep time="1.20">
        <edge id="bottom">
            <lane id="bottom_0">
                <vehicle id="rlbottom.0" pos="12.00" speed="10.00"/>
                <vehicle id="rlbottom.1" pos="40.22" speed="10.00"/>
            </lane>
            <lane id="bottom_1"/>
        </edge>
        <edge id="left">
            <lane id="left_0">
                <vehicle id="rlleft.0" pos="12.00" speed="10.00"/>
                <vehicle id="rlleft.1" pos="40.22" speed="10.00"/>
            </lane>
            <lane id="left_1"/>
        </edge>
        <edge id="right">
            <lane id="right_0">
                <vehicle id="rlright.0" pos="12.00" speed="10.00"/>
                <vehicle id="rlright.1" pos="40.22" speed="10.00"/>
            </lane>
            <lane id="right_1"/>
        </edge>
        <edge id="top">
            <lane id="top_0">
                <vehicle id="rltop.0" pos="12.00" speed="10.00"/>
                <vehicle id="rltop.1" pos="40.22" speed="10.00"/>
            </lane>
            <lane id="top_1"/>
        </edge>
    </timestep>
    <timestep time="1.30">
        <edge id="bottom">
            <lane id="bottom_0">
                <vehicle id="rlbottom.0" pos="13.00" speed="10.00"/>
                <vehicle id="rlbottom.1" pos="41.22" speed="10.00"/>
            </lane>
            <lane id="bottom_1"/>
        </edge>
        <edge id="left">
            <lane id="left_0">
                <vehicle id="rlleft.0" pos="13.00" speed="10.00"/>
                <vehicle id="rlleft.1" pos="41.22" speed="10.00"/>
            </lane>
            <lane id="left_1"/>
        </edge>
        <edge id="right">
            <lane id="right_0">
                <vehicle id="rlright.0" pos="13.00" speed="10.00"/>
                <vehicle id="rlright.1" pos="41.22" speed="10.00"/>
            </lane>
            <lane id="right_1"/>
        </edge>
        <edge id="top">
            <lane id="top_0">
                <vehicle id="rltop.0" pos="13.00" speed="10.00"/>
                <vehicle id="rltop.1" pos="41.22" speed="10.00"/>
            </lane>
            <lane id="top_1"/>
        </edge>
    </timestep>
    <timestep time="1.40">
        <edge id="bottom">
            <lane id="bottom_0">
                <vehicle id="rlbottom.0" pos="14.00" speed="10.00"/>
                <vehicle id="rlbottom.1" pos="42.22" speed="10.00"/>
            </lane>
            <lane id="bottom_1"/>
        </edge>
        <edge id="left">
            <lane id="left_0">
                <vehicle id="rlleft.0" pos="14.00" speed="10.00"/>
                <vehicle id="rlleft.1" pos="42.22" speed="10.00"/>
            </lane>
            <lane id="left_1"/>
        </edge>
        <edge id="right">
            <lane id="right_0">
                <vehicle id="rlright.0" pos="14.00" speed="10.00"/>
                <vehicle id="rlright.1" pos="42.22" speed="10.00"/>
            </lane>
            <lane id="right_1"/>
        </edge>
        <edge id="top">
            <lane id="top_0">
                <vehicle id="rltop.0" pos="14.00" speed="10.00"/>
                <vehicle id="rltop.1" pos="42.22" speed="10.00"/>
            </lane>
            <lane id="top_1"/>
        </edge>
    </timestep>
    <timestep time="1.50">
        <edge id="bottom">
            <lane id="bottom_0">
                <vehicle id="rlbottom.0" pos="15.00" speed="10.00"/>
                <vehicle id="rlbottom.1" pos="43.22" speed="10.00"/>
            </lane>
            <lane id="bottom_1"/>
        </edge>
        <edge id="left">
            <lane id="left_0">
                <vehicle id="rlleft.0" pos="15.00" speed="10.00"/>
                <vehicle id="rlleft.1" pos="43.22" speed="10.00"/>
            </lane>
            <lane id="left_1"/>
        </edge>
        <edge id="right">
            <lane id="right_0">
                <vehicle id="rlright.0" pos="15.00" speed="10.00"/>
                <vehicle id="rlright.1" pos="43.22" speed="10.00"/>
            </lane>
            <lane id="right_1"/>
        </edge>
        <edge id="top">
            <lane id="top_0">
                <vehicle id="rltop.0" pos="15.00" speed="10.00"/>
                <vehicle id="rltop.1" pos="43.22" speed="10.00"/>
            </lane>
            <lane id="top_1"/>
        </edge>
    </timestep>
    <timestep time="1.60">
        <edge id="bottom">
            <lane id="bottom_0">
                <vehicle id="rlbottom.0" pos="16.00" speed="10.00"/>
                <vehicle id="rlbottom.1" pos="44.22" speed="10.00"/>
            </lane>
            <lane id="bottom_1"/>
        </edge>
        <edge id="left">
            <lane id="left_0">
                <vehicle id="rlleft.0" pos="16.00" speed="10.00"/>
                <vehicle id="rlleft.1" pos="44.22" speed="10.00"/>
            </lane>
            <lane id="left_1"/>
        </edge>
        <edge id="right">
            <lane id="right_0">
                <vehicle id="rlright.0" pos="16.00" speed="10.00"/>
                <vehicle id="rlright.1" pos="44.22" speed="10.00"/>
            </lane>
            <lane id="right_1"/>
        </edge>
        <edge id="top">
            <lane id="top_0">
                <vehicle id="rltop.0" pos="16.00" speed="10.00"/>
                <vehicle id="rltop.1" pos="44.22" speed="10.00"/>
            </lane>
            <lane id="top_1"/>
        </edge>
    </timestep>
    <timestep time="1.70">
        <edge id="bottom">
            <lane id="bottom_0">
                <vehicle id="rlbottom.0" pos="17.00" speed="10.00"/>
                <vehicle id="rlbottom.1" pos="45.22" speed="10.00"/>
            </lane>
            <lane id="bottom_1"/>
        </edge>
        <edge id="left">
            <lane id="left_0">
                <vehicle id="rlleft.0" pos="17.00" speed="10.00"/>
                <vehicle id="rlleft.1" pos="45.22" speed="10.00"/>
            </lane>
            <lane id="left_1"/>
        </edge>
        <edge id="right">
            <lane id="right_0">
                <vehicle id="rlright.0" pos="17.00" speed="10.00"/>
                <vehicle id="rlright.1" pos="45.22" speed="10.00"/>
            </lane>
            <lane id="right_1"/>
        </edge>
        <edge id="top">
            <lane id="top_0">
                <vehicle id="rltop.0" pos="17.00" speed="10.00"/>
                <vehicle id="rltop.1" pos="45.22" speed="10.00"/>
            </lane>
            <lane id="top_1"/>
        </edge>
    </timestep>
    <timestep time="1.80">
        <edge id="bottom">
            <lane id="bottom_0">
                <vehicle id="rlbottom.0" pos="18.00" speed="10.00"/>
                <vehicle id="rlbottom.1" pos="46.22" speed="10.00"/>
            </lane>
            <lane id="bottom_1"/>
        </edge>
        <edge id="left">
            <lane id="left_0">
                <vehicle id="rlleft.0" pos="18.00" speed="10.00"/>
                <vehicle id="rlleft.1" pos="46.22" speed="10.00"/>
            </lane>
            <lane id="left_1"/>
        </edge>
        <edge id="right">
            <lane id="right_0">
                <vehicle id="rlright.0" pos="18.00" speed="10.00"/>
                <vehicle id="rlright.1" pos="46.22" speed="10.00"/>
            </lane>
            <lane id="right_1"/>
        </edge>
        <edge id="top">
            <lane id="top_0">
                <vehicle id="rltop.0" pos="18.00" speed="10.00"/>
                <vehicle id="rltop.1" pos="46.22" speed="10.00"/>
            </lane>
            <lane id="top_1"/>
        </edge>
    </timestep>
    <timestep time="1.90">
        <edge id="bottom">
            <lane id="bottom_0">
                <vehicle id="rlbottom.0" pos="19.00" speed="10.00"/>
                <vehicle id="rlbottom.1" pos="47.22" speed="10.00"/>
            </lane>
            <lane id="bottom_1"/>
        </edge>
        <edge id="left">
            <lane id="left_0">
                <vehicle id="rlleft.0" pos="19.00" speed="10.00"/>
                <vehicle id="rlleft.1" pos="47.22" speed="10.00"/>
            </lane>
            <lane id="left_1"/>
        </edge>
        <edge id="right">
            <lane id="right_0">
                <vehicle id="rlright.0" pos="19.00" speed="10.00"/>
                <vehicle id="rlright.1" pos="47.22" speed="10.00"/>
            </lane>
            <lane id="right_1"/>
        </edge>
        <edge id="top">
            <lane id="top_0">
                <vehicle id="rltop.0" pos="19.00" speed="10.00"/>
                <vehicle id="rltop.1" pos="47.22" speed="10.00"/>
            </lane>
            <lane id="top_1"/>
        </edge>
    </timestep>
    <timestep time="2.00">
        <edge id="bottom">
            <lane id="bottom_0">
                <vehicle id="rlbottom.0" pos="20.00" speed="10.00"/>
                <vehicle id="rlbottom.1" pos="48.22" speed="10.00"/>
            </lane>
            <lane id="bottom_1"/>
        </edge>
        <edge id="left">
            <lane id="left_0">
                <vehicle id="rlleft.0" pos="20.00" speed="10.00"/>
                <vehicle id="rlleft.1" pos="48.22" speed="10.00"/>
            </lane>
            <lane id="left_1"/>
        </edge>
        <edge id="right">
            <lane id="right_0">
                <vehicle id="rlright.0" pos="20.00" speed="10.00"/>
                <vehicle id="rlright.1" pos="48.22" speed="10.00"/>
            </lane>
            <lane id="right_1"/>
        </edge>
        <edge id="top">
            <lane id="top_0">
                <vehicle id="rltop.0" pos="20.00" speed="10.00"/>
                <vehicle id="rltop.1" pos="48.22" speed="10.00"/>
            </lane>
            <lane id="top_1"/>
        </edge>
    </timestep>
    <timestep time="2.10">
        <edge id="bottom">
            <lane id="bottom_0">
                <vehicle id="rlbottom.0" pos="21.00" speed="10.00"/>
                <vehicle id="rlbottom.1" pos="49.22" speed="10.00"/>
            </lane>
            <lane id="bottom_1"/>
        </edge>
        <edge id="left">
            <lane id="left_0">
                <vehicle id="rlleft.0" pos="21.00" speed="10.00"/>
                <vehicle id="rlleft.1" pos="49.22" speed="10.00"/>
            </lane>
            <lane id="left_1"/>
        </edge>
        <edge id="right">
            <lane id="right_0">
                <vehicle id="rlright.0" pos="21.00" speed="10.00"/>
                <vehicle id="rlright.1" pos="49.22" speed="10.00"/>
            </lane>
            <lane id="right_1"/>
        </edge>
        <edge id="top">
            <lane id="top_0">
                <vehicle id="rltop.0" pos="21.00" speed="10.00"/>
                <vehicle id="rltop.1" pos="49.22" speed="10.00"/>
            </lane>
            <lane id="top_1"/>
        </edge>
    </timestep>
    <timestep time="2.20">
        <edge id="bottom">
            <lane id="bottom_0">
                <vehicle id="rlleft.1" pos="0.22" speed="10.00"/>
                <vehicle id="rlbottom.0" pos="22.00" speed="10.00"/>
            </lane>
            <lane id="bottom_1"/>
        </edge>
        <edge id="left">
            <lane id="left_0">
                <vehicle id="rltop.1" pos="0.22" speed="10.00"/>
                <vehicle id="rlleft.0" pos="22.00" speed="10.00"/>
            </lane>
            <lane id="left_1"/>
        </edge>
        <edge id="right">
            <lane id="right_0">
                <vehicle id="rlbottom.1" pos="0.22" speed="10.00"/>
                <vehicle id="rlright.0" pos="22.00" speed="10.00"/>
            </lane>
            <lane id="right_1"/>
        </edge>
        <edge id="top">
            <lane id="top_0">
                <vehicle id="rlright.1" pos="0.22" speed="10.00"/>
                <vehicle id="rltop.0" pos="22.00" speed="10.00"/>
            </lane>
            <lane id="top_1"/>
        </edge>
    </timestep>
    <timestep time="2.30">
        <edge id="bottom">
            <lane id="bottom_0">
                <vehicle id="rlleft.1" pos="1.22" speed="10.00"/>
                <vehicle id="rlbottom.0" pos="23.00" speed="10.00"/>
            </lane>
            <lane id="bottom_1"/>
        </edge>
        <edge id="left">
            <lane id="left_0">
                <vehicle id="rltop.1" pos="1.22" speed="10.00"/>
                <vehicle id="rlleft.0" pos="23.00" speed="10.00"/>
            </lane>
            <lane id="left_1"/>
        </edge>
        <edge id="right">
            <lane id="right_0">
                <vehicle id="rlbottom.1" pos="1.22" speed="10.00"/>
                <vehicle id="rlright.0" pos="23.00" speed="10.00"/>
            </lane>
            <lane id="right_1"/>
        </edge>
        <edge id="top">
            <lane id="top_0">
                <vehicle id="rlright.1" pos="1.22" speed="10.00"/>
                <vehicle id="rltop.0" pos="23.00" speed="10.00"/>
            </lane>
            <lane id="top_1"/>
        </edge>
    </timestep>
    <timestep time="2.40">
        <edge id="bottom">
            <lane id="bottom_0">
                <vehicle id="rlleft.1" pos="2.22" speed="10.00"/>
                <vehicle id="rlbottom.0" pos="24.00" speed="10.00"/>
            </lane>
            <lane id="bottom_1"/>
        </edge>
        <edge id="left">
            <lane id="left_0">
                <vehicle id="rltop.1" pos="2.22" speed="10.00"/>
                <vehicle id="rlleft.0" pos="24.00" speed="10.00"/>
            </lane>
            <lane id="left_1"/>
        </edge>
        <edge id="right">
            <lane id="right_0">
                <vehicle id="rlbottom.1" pos="2.22" speed="10.00"/>
                <vehicle id="rlright.0" pos="24.00" speed="10.00"/>
            </lane>
            <lane id="right_1"/>
        </edge>
        <edge id="top">
            <lane id="top_0">
                <vehicle id="rlright.1" pos="2.22" speed="10.00"/>
                <vehicle id="rltop.0" pos="24.00" speed="10.00"/>
            </lane>
            <lane id="top_1"/>
        </edge>
    </timestep>
    <timestep time="2.50">
        <edge id="bottom">
            <lane id="bottom_0">
                <vehicle id="rlleft.1" pos="3.22" speed="10.00"/>
                <vehicle id="rlbottom.0" pos="25.00" speed="10.00"/>
            </lane>
            <lane id="bottom_1"/>
        </edge>
        <edge id="left">
            <lane id="left_0">
                <vehicle id="rltop.1" pos="3.22" speed="10.00"/>
                <vehicle id="rlleft.0" pos="25.00" speed="10.00"/>
            </lane>
            <lane id="left_1"/>
        </edge>
        <edge id="right">
            <lane id="right_0">
                <vehicle id="rlbottom.1" pos="3.22" speed="10.00"/>
                <vehicle id="rlright.0" pos="25.00" speed="10.00"/>
            </lane>
            <lane id="right_1"/>
        </edge>
        <edge id="top">
            <lane id="top_0">
                <vehicle id="rlright.1" pos="3.22" speed="10.00"/>
                <vehicle id="rltop.0" pos="25.00" speed="10.00"/>
            </lane>
            <lane id="top_1"/>
        </edge>
    </timestep>
    <timestep time="2.60">
        <edge id="bottom">
            <lane id="bottom_0">
                <vehicle id="rlleft.1" pos="4.22" speed="10.00"/>
                <vehicle id="rlbottom.0" pos="26.00" speed="10.00"/>
            </lane>
            <lane id="bottom_1"/>
        </edge>
        <edge id="left">
            <lane id="left_0">
                <vehicle id="rltop.1" pos="4.22" speed="10.00"/>
                <vehicle id="rlleft.0" pos="26.00" speed="10.00"/>
            </lane>
            <lane id="left_1"/>
        </edge>
        <edge id="right">
            <lane id="right_0">
                <vehicle id="rlbottom.1" pos="4.22" speed="10.00"/>
                <vehicle id="rlright.0" pos="26.00" speed="10.00"/>
            </lane>
            <lane id="right_1"/>
        </edge>
        <edge id="top">
            <lane id="top_0">
                <vehicle id="rlright.1" pos="4.22" speed="10.00"/>
                <vehicle id="rltop.0" pos="26.00" speed="10.00"/>
            </lane>
            <lane id="top_1"/>
        </edge>
    </timestep>
    <timestep time="2.70">
        <edge id="bottom">
            <lane id="bottom_0">
                <vehicle id="rlleft.1" pos="5.22" speed="10.00"/>
                <vehicle id="rlbottom.0" pos="27.00" speed="10.00"/>
            </lane>
            <lane id="bottom_1"/>
        </edge>
        <edge id="left">
            <lane id="left_0">
                <vehicle id="rltop.1" pos="5.22" speed="10.00"/>
                <vehicle id="rlleft.0" pos="27.00" speed="10.00"/>
            </lane>
            <lane id="left_1"/>
        </edge>
        <edge id="right">
            <lane id="right_0">
                <vehicle id="rlbottom.1" pos="5.22" speed="10.00"/>
                <vehicle id="rlright.0" pos="27.00" speed="10.00"/>
            </lane>
            <lane id="right_1"/>
        </edge>
        <edge id="top">
            <lane id="top_0">
                <vehicle id="rlright.1" pos="5.22" speed="10.00"/>
                <vehicle id="rltop.0" pos="27.00" speed="10.00"/>
            </lane>
            <lane id="top_1"/>
        </edge>
    </timestep>
    <timestep time="2.80">
        <edge id="bottom">
            <lane id="bottom_0">
                <vehicle id="rlleft.1" pos="6.22" speed="10.00"/>
                <vehicle id="rlbottom.0" pos="28.00" speed="10.00"/>
            </lane>
            <lane id="bottom_1"/>
        </edge>
        <edge id="left">
            <lane id="left_0">
                <vehicle id="rltop.1" pos="6.22" speed="10.00"/>
                <vehicle id="rlleft.0" pos="28.00" speed="10.00"/>
            </lane>
            <lane id="left_1"/>
        </edge>
        <edge id="right">
            <lane id="right_0">
                <vehicle id="rlbottom.1" pos="6.22" speed="10.00"/>
                <vehicle id="rlright.0" pos="28.00" speed="10.00"/>
            </lane>
            <lane id="right_1"/>
        </edge>
        <edge id="top">
            <lane id="top_0">
                <vehicle id="rlright.1" pos="6.22" speed="10.00"/>
                <vehicle id="rltop.0" pos="28.00" speed="10.00"/>
            </lane>
            <lane id="top_1"/>
        </edge>