<?xml version="1.0" encoding="UTF-8"?>

<!-- generated on Wed Feb  1 11:41:00 2017 by SUMO gui Version 0.27.1
<?xml version="1.0" encoding="UTF-8"?>

<configuration xmlns:xsi="http://www.w3.org/2001/XMLSchema-instance" xsi:noNamespaceSchemaLocation="http://sumo.dlr.de/xsd/sumo-gui.exeConfiguration.xsd">

    <input>
        <net-file value="debug/cfg/test-exp-400m1l.net.xml"/>
        <route-files value="debug/cfg/test-exp-400m1l.rou.xml"/>
        <additional-files value="debug/cfg/test-exp-400m1l.add.xml"/>
    </input>

    <output>
        <netstate-dump value="debug/cfg/data/test-exp-400m1l.netstate.xml"/>
        <emission-output value="debug/cfg/data/test-exp-400m1l.emission.xml"/>
        <amitran-output value="debug/cfg/data/test-exp-400m1l.amitran.xml"/>
        <lanechange-output value="debug/cfg/data/test-exp-400m1l.lanechange.xml"/>
    </output>

    <time>
        <begin value="0"/>
        <end value="3000"/>
        <step-length value="0.1"/>
    </time>

    <traci_server>
        <remote-port value="8873"/>
    </traci_server>

    <gui_only>
        <gui-settings-file value="debug/cfg/test-exp-400m1l.gui.cfg"/>
    </gui_only>

</configuration>
-->

<emission-export xmlns:xsi="http://www.w3.org/2001/XMLSchema-instance" xsi:noNamespaceSchemaLocation="http://sumo.dlr.de/xsd/emission_file.xsd">
    <timestep time="0.00">
        <vehicle id="rlbottom.0" eclass="HBEFA2/P_7_7" CO2="601.69" CO="6.37" HC="0.35" NOx="0.84" PMx="0.02" fuel="0.24" electricity="0.00" noise="55.94" route="routebottom" type="rl" waiting="0.00" lane="bottom_0" pos="0.00" speed="0.00" angle="92.28" x="127.36" y="-1.65"/>
        <vehicle id="rlleft.0" eclass="HBEFA2/P_7_7" CO2="601.69" CO="6.37" HC="0.35" NOx="0.84" PMx="0.02" fuel="0.24" electricity="0.00" noise="55.94" route="routeleft" type="rl" waiting="0.00" lane="left_0" pos="0.00" speed="0.00" angle="182.28" x="-1.65" y="127.29"/>
        <vehicle id="rlright.0" eclass="HBEFA2/P_7_7" CO2="601.69" CO="6.37" HC="0.35" NOx="0.84" PMx="0.02" fuel="0.24" electricity="0.00" noise="55.94" route="routeright" type="rl" waiting="0.00" lane="right_0" pos="0.00" speed="0.00" angle="2.23" x="256.29" y="127.36"/>
        <vehicle id="rltop.0" eclass="HBEFA2/P_7_7" CO2="601.69" CO="6.37" HC="0.35" NOx="0.84" PMx="0.02" fuel="0.24" electricity="0.00" noise="55.94" route="routetop" type="rl" waiting="0.00" lane="top_0" pos="0.00" speed="0.00" angle="272.23" x="127.29" y="256.29"/>
    </timestep>
    <timestep time="0.10">
        <vehicle id="rlbottom.0" eclass="HBEFA2/P_7_7" CO2="0.00" CO="0.00" HC="0.00" NOx="0.00" PMx="0.00" fuel="0.00" electricity="0.00" noise="500.04" route="routebottom" type="rl" waiting="0.00" lane="bottom_0" pos="1.00" speed="10.00" angle="91.36" x="129.38" y="-1.61"/>
        <vehicle id="rlleft.0" eclass="HBEFA2/P_7_7" CO2="0.00" CO="0.00" HC="0.00" NOx="0.00" PMx="0.00" fuel="0.00" electricity="0.00" noise="500.04" route="routeleft" type="rl" waiting="0.00" lane="left_0" pos="1.00" speed="10.00" angle="181.36" x="-1.61" y="125.27"/>
        <vehicle id="rlright.0" eclass="HBEFA2/P_7_7" CO2="0.00" CO="0.00" HC="0.00" NOx="0.00" PMx="0.00" fuel="0.00" electricity="0.00" noise="500.04" route="routeright" type="rl" waiting="0.00" lane="right_0" pos="1.00" speed="10.00" angle="1.33" x="256.25" y="129.38"/>
        <vehicle id="rltop.0" eclass="HBEFA2/P_7_7" CO2="0.00" CO="0.00" HC="0.00" NOx="0.00" PMx="0.00" fuel="0.00" electricity="0.00" noise="500.04" route="routetop" type="rl" waiting="0.00" lane="top_0" pos="1.00" speed="10.00" angle="271.33" x="125.27" y="256.25"/>
    </timestep>
    <timestep time="0.20">
        <vehicle id="rlbottom.0" eclass="HBEFA2/P_7_7" CO2="1680.07" CO="0.00" HC="0.29" NOx="2.67" PMx="0.10" fuel="0.67" electricity="0.00" noise="61.77" route="routebottom" type="rl" waiting="0.00" lane="bottom_0" pos="2.00" speed="10.00" angle="90.44" x="131.41" y="-1.57"/>
        <vehicle id="rlleft.0" eclass="HBEFA2/P_7_7" CO2="1680.07" CO="0.00" HC="0.29" NOx="2.67" PMx="0.10" fuel="0.67" electricity="0.00" noise="61.77" route="routeleft" type="rl" waiting="0.00" lane="left_0" pos="2.00" speed="10.00" angle="180.44" x="-1.57" y="123.24"/>
        <vehicle id="rlright.0" eclass="HBEFA2/P_7_7" CO2="1680.07" CO="0.00" HC="0.29" NOx="2.67" PMx="0.10" fuel="0.67" electricity="0.00" noise="61.77" route="routeright" type="rl" waiting="0.00" lane="right_0" pos="2.00" speed="10.00" angle="0.43" x="256.21" y="131.41"/>
        <vehicle id="rltop.0" eclass="HBEFA2/P_7_7" CO2="1680.07" CO="0.00" HC="0.29" NOx="2.67" PMx="0.10" fuel="0.67" electricity="0.00" noise="61.77" route="routetop" type="rl" waiting="0.00" lane="top_0" pos="2.00" speed="10.00" angle="270.43" x="123.24" y="256.21"/>
    </timestep>
    <timestep time="0.30">
        <vehicle id="rlbottom.0" eclass="HBEFA2/P_7_7" CO2="1680.07" CO="0.00" HC="0.29" NOx="2.67" PMx="0.10" fuel="0.67" electricity="0.00" noise="61.77" route="routebottom" type="rl" waiting="0.00" lane="bottom_0" pos="3.00" speed="10.00" angle="89.56" x="133.43" y="-1.49"/>
        <vehicle id="rlleft.0" eclass="HBEFA2/P_7_7" CO2="1680.07" CO="0.00" HC="0.29" NOx="2.67" PMx="0.10" fuel="0.67" electricity="0.00" noise="61.77" route="routeleft" type="rl" waiting="0.00" lane="left_0" pos="3.00" speed="10.00" angle="179.56" x="-1.49" y="121.22"/>
        <vehicle id="rlright.0" eclass="HBEFA2/P_7_7" CO2="1680.07" CO="0.00" HC="0.29" NOx="2.67" PMx="0.10" fuel="0.67" electricity="0.00" noise="61.77" route="routeright" type="rl" waiting="0.00" lane="right_0" pos="3.00" speed="10.00" angle="359.57" x="256.14" y="133.43"/>
        <vehicle id="rltop.0" eclass="HBEFA2/P_7_7" CO2="1680.07" CO="0.00" HC="0.29" NOx="2.67" PMx="0.10" fuel="0.67" electricity="0.00" noise="61.77" route="routetop" type="rl" waiting="0.00" lane="top_0" pos="3.00" speed="10.00" angle="269.57" x="121.22" y="256.14"/>
    </timestep>
    <timestep time="0.40">
        <vehicle id="rlbottom.0" eclass="HBEFA2/P_7_7" CO2="1680.07" CO="0.00" HC="0.29" NOx="2.67" PMx="0.10" fuel="0.67" electricity="0.00" noise="61.77" route="routebottom" type="rl" waiting="0.00" lane="bottom_0" pos="4.00" speed="10.00" angle="88.64" x="135.45" y="-1.37"/>
        <vehicle id="rlleft.0" eclass="HBEFA2/P_7_7" CO2="1680.07" CO="0.00" HC="0.29" NOx="2.67" PMx="0.10" fuel="0.67" electricity="0.00" noise="61.77" route="routeleft" type="rl" waiting="0.00" lane="left_0" pos="4.00" speed="10.00" angle="178.64" x="-1.37" y="119.20"/>
        <vehicle id="rlright.0" eclass="HBEFA2/P_7_7" CO2="1680.07" CO="0.00" HC="0.29" NOx="2.67" PMx="0.10" fuel="0.67" electricity="0.00" noise="61.77" route="routeright" type="rl" waiting="0.00" lane="right_0" pos="4.00" speed="10.00" angle="358.67" x="256.01" y="135.45"/>
        <vehicle id="rltop.0" eclass="HBEFA2/P_7_7" CO2="1680.07" CO="0.00" HC="0.29" NOx="2.67" PMx="0.10" fuel="0.67" electricity="0.00" noise="61.77" route="routetop" type="rl" waiting="0.00" lane="top_0" pos="4.00" speed="10.00" angle="268.67" x="119.20" y="256.01"/>
    </timestep>
    <timestep time="0.50">
        <vehicle id="rlbottom.0" eclass="HBEFA2/P_7_7" CO2="1680.07" CO="0.00" HC="0.29" NOx="2.67" PMx="0.10" fuel="0.67" electricity="0.00" noise="61.77" route="routebottom" type="rl" waiting="0.00" lane="bottom_0" pos="5.00" speed="10.00" angle="87.70" x="137.48" y="-1.24"/>
        <vehicle id="rlleft.0" eclass="HBEFA2/P_7_7" CO2="1680.07" CO="0.00" HC="0.29" NOx="2.67" PMx="0.10" fuel="0.67" electricity="0.00" noise="61.77" route="routeleft" type="rl" waiting="0.00" lane="left_0" pos="5.00" speed="10.00" angle="177.70" x="-1.24" y="117.17"/>
        <vehicle id="rlright.0" eclass="HBEFA2/P_7_7" CO2="1680.07" CO="0.00" HC="0.29" NOx="2.67" PMx="0.10" fuel="0.67" electricity="0.00" noise="61.77" route="routeright" type="rl" waiting="0.00" lane="right_0" pos="5.00" speed="10.00" angle="357.76" x="255.89" y="137.48"/>
        <vehicle id="rltop.0" eclass="HBEFA2/P_7_7" CO2="1680.07" CO="0.00" HC="0.29" NOx="2.67" PMx="0.10" fuel="0.67" electricity="0.00" noise="61.77" route="routetop" type="rl" waiting="0.00" lane="top_0" pos="5.00" speed="10.00" angle="267.76" x="117.17" y="255.89"/>
    </timestep>
    <timestep time="0.60">
        <vehicle id="rlbottom.0" eclass="HBEFA2/P_7_7" CO2="1680.07" CO="0.00" HC="0.29" NOx="2.67" PMx="0.10" fuel="0.67" electricity="0.00" noise="61.77" route="routebottom" type="rl" waiting="0.00" lane="bottom_0" pos="6.00" speed="10.00" angle="86.83" x="139.49" y="-1.05"/>
        <vehicle id="rlleft.0" eclass="HBEFA2/P_7_7" CO2="1680.07" CO="0.00" HC="0.29" NOx="2.67" PMx="0.10" fuel="0.67" electricity="0.00" noise="61.77" route="routeleft" type="rl" waiting="0.00" lane="left_0" pos="6.00" speed="10.00" angle="176.83" x="-1.05" y="115.16"/>
        <vehicle id="rlright.0" eclass="HBEFA2/P_7_7" CO2="1680.07" CO="0.00" HC="0.29" NOx="2.67" PMx="0.10" fuel="0.67" electricity="0.00" noise="61.77" route="routeright" type="rl" waiting="0.00" lane="right_0" pos="6.00" speed="10.00" angle="356.88" x="255.70" y="139.49"/>
        <vehicle id="rltop.0" eclass="HBEFA2/P_7_7" CO2="1680.07" CO="0.00" HC="0.29" NOx="2.67" PMx="0.10" fuel="0.67" electricity="0.00" noise="61.77" route="routetop" type="rl" waiting="0.00" lane="top_0" pos="6.00" speed="10.00" angle="266.88" x="115.16" y="255.70"/>
    </timestep>
    <timestep time="0.70">
        <vehicle id="rlbottom.0" eclass="HBEFA2/P_7_7" CO2="1680.07" CO="0.00" HC="0.29" NOx="2.67" PMx="0.10" fuel="0.67" electricity="0.00" noise="61.77" route="routebottom" type="rl" waiting="0.00" lane="bottom_0" pos="7.00" speed="10.00" angle="85.90" x="141.51" y="-0.85"/>
        <vehicle id="rlleft.0" eclass="HBEFA2/P_7_7" CO2="1680.07" CO="0.00" HC="0.29" NOx="2.67" PMx="0.10" fuel="0.67" electricity="0.00" noise="61.77" route="routeleft" type="rl" waiting="0.00" lane="left_0" pos="7.00" speed="10.00" angle="175.90" x="-0.85" y="113.14"/>
        <vehicle id="rlright.0" eclass="HBEFA2/P_7_7" CO2="1680.07" CO="0.00" HC="0.29" NOx="2.67" PMx="0.10" fuel="0.67" electricity="0.00" noise="61.77" route="routeright" type="rl" waiting="0.00" lane="right_0" pos="7.00" speed="10.00" angle="355.95" x="255.50" y="141.51"/>
        <vehicle id="rltop.0" eclass="HBEFA2/P_7_7" CO2="1680.07" CO="0.00" HC="0.29" NOx="2.67" PMx="0.10" fuel="0.67" electricity="0.00" noise="61.77" route="routetop" type="rl" waiting="0.00" lane="top_0" pos="7.00" speed="10.00" angle="265.95" x="113.14" y="255.50"/>
    </timestep>
    <timestep time="0.80">
        <vehicle id="rlbottom.0" eclass="HBEFA2/P_7_7" CO2="1680.07" CO="0.00" HC="0.29" NOx="2.67" PMx="0.10" fuel="0.67" electricity="0.00" noise="61.77" route="routebottom" type="rl" waiting="0.00" lane="bottom_0" pos="8.00" speed="10.00" angle="85.04" x="143.52" y="-0.62"/>
        <vehicle id="rlleft.0" eclass="HBEFA2/P_7_7" CO2="1680.07" CO="0.00" HC="0.29" NOx="2.67" PMx="0.10" fuel="0.67" electricity="0.00" noise="61.77" route="routeleft" type="rl" waiting="0.00" lane="left_0" pos="8.00" speed="10.00" angle="175.04" x="-0.62" y="111.13"/>
        <vehicle id="rlright.0" eclass="HBEFA2/P_7_7" CO2="1680.07" CO="0.00" HC="0.29" NOx="2.67" PMx="0.10" fuel="0.67" electricity="0.00" noise="61.77" route="routeright" type="rl" waiting="0.00" lane="right_0" pos="8.00" speed="10.00" angle="355.08" x="255.27" y="143.52"/>
        <vehicle id="rltop.0" eclass="HBEFA2/P_7_7" CO2="1680.07" CO="0.00" HC="0.29" NOx="2.67" PMx="0.10" fuel="0.67" electricity="0.00" noise="61.77" route="routetop" type="rl" waiting="0.00" lane="top_0" pos="8.00" speed="10.00" angle="265.08" x="111.13" y="255.27"/>
    </timestep>
    <timestep time="0.90">
        <vehicle id="rlbottom.0" eclass="HBEFA2/P_7_7" CO2="1680.07" CO="0.00" HC="0.29" NOx="2.67" PMx="0.10" fuel="0.67" electricity="0.00" noise="61.77" route="routebottom" type="rl" waiting="0.00" lane="bottom_0" pos="9.00" speed="10.00" angle="84.13" x="145.52" y="-0.33"/>
        <vehicle id="rlleft.0" eclass="HBEFA2/P_7_7" CO2="1680.07" CO="0.00" HC="0.29" NOx="2.67" PMx="0.10" fuel="0.67" electricity="0.00" noise="61.77" route="routeleft" type="rl" waiting="0.00" lane="left_0" pos="9.00" speed="10.00" angle="174.13" x="-0.33" y="109.13"/>
        <vehicle id="rlright.0" eclass="HBEFA2/P_7_7" CO2="1680.07" CO="0.00" HC="0.29" NOx="2.67" PMx="0.10" fuel="0.67" electricity="0.00" noise="61.77" route="routeright" type="rl" waiting="0.00" lane="right_0" pos="9.00" speed="10.00" angle="354.15" x="254.98" y="145.52"/>
        <vehicle id="rltop.0" eclass="HBEFA2/P_7_7" CO2="1680.07" CO="0.00" HC="0.29" NOx="2.67" PMx="0.10" fuel="0.67" electricity="0.00" noise="61.77" route="routetop" type="rl" waiting="0.00" lane="top_0" pos="9.00" speed="10.00" angle="264.15" x="109.13" y="254.98"/>
    </timestep>
    <timestep time="1.00">
        <vehicle id="rlbottom.0" eclass="HBEFA2/P_7_7" CO2="1680.07" CO="0.00" HC="0.29" NOx="2.67" PMx="0.10" fuel="0.67" electricity="0.00" noise="61.77" route="routebottom" type="rl" waiting="0.00" lane="bottom_0" pos="10.00" speed="10.00" angle="83.22" x="147.53" y="-0.05"/>
        <vehicle id="rlbottom.1" eclass="HBEFA2/P_7_7" CO2="601.69" CO="6.37" HC="0.35" NOx="0.84" PMx="0.02" fuel="0.24" electricity="0.00" noise="55.94" route="routebottom" type="rl" waiting="0.00" lane="bottom_0" pos="38.22" speed="0.00" angle="57.79" x="200.18" y="20.91"/>
        <vehicle id="rlleft.0" eclass="HBEFA2/P_7_7" CO2="1680.07" CO="0.00" HC="0.29" NOx="2.67" PMx="0.10" fuel="0.67" electricity="0.00" noise="61.77" route="routeleft" type="rl" waiting="0.00" lane="left_0" pos="10.00" speed="10.00" angle="173.22" x="-0.05" y="107.12"/>
        <vehicle id="rlleft.1" eclass="HBEFA2/P_7_7" CO2="601.69" CO="6.37" HC="0.35" NOx="0.84" PMx="0.02" fuel="0.24" electricity="0.00" noise="55.94" route="routeleft" type="rl" waiting="0.00" lane="left_0" pos="38.22" speed="0.00" angle="147.79" x="20.91" y="54.47"/>
        <vehicle id="rlright.0" eclass="HBEFA2/P_7_7" CO2="1680.07" CO="0.00" HC="0.29" NOx="2.67" PMx="0.10" fuel="0.67" electricity="0.00" noise="61.77" route="routeright" type="rl" waiting="0.00" lane="right_0" pos="10.00" speed="10.00" angle="353.22" x="254.70" y="147.53"/>
        <vehicle id="rlright.1" eclass="HBEFA2/P_7_7" CO2="601.69" CO="6.37" HC="0.35" NOx="0.84" PMx="0.02" fuel="0.24" electricity="0.00" noise="55.94" route="routeright" type="rl" waiting="0.00" lane="right_0" pos="38.22" speed="0.00" angle="327.83" x="233.74" y="200.18"/>
        <vehicle id="rltop.0" eclass="HBEFA2/P_7_7" CO2="1680.07" CO="0.00" HC="0.29" NOx="2.67" PMx="0.10" fuel="0.67" electricity="0.00" noise="61.77" route="routetop" type="rl" waiting="0.00" lane="top_0" pos="10.00" speed="10.00" angle="263.22" x="107.12" y="254.70"/>
        <vehicle id="rltop.1" eclass="HBEFA2/P_7_7" CO2="601.69" CO="6.37" HC="0.35" NOx="0.84" PMx="0.02" fuel="0.24" electricity="0.00" noise="55.94" route="routetop" type="rl" waiting="0.00" lane="top_0" pos="38.22" speed="0.00" angle="237.83" x="54.47" y="233.74"/>
    </timestep>
    <timestep time="1.10">
        <vehicle id="rlbottom.0" eclass="HBEFA2/P_7_7" CO2="1680.07" CO="0.00" HC="0.29" NOx="2.67" PMx="0.10" fuel="0.67" electricity="0.00" noise="61.77" route="routebottom" type="rl" waiting="0.00" lane="bottom_0" pos="11.00" speed="10.00" angle="82.35" x="149.52" y="0.30"/>
        <vehicle id="rlbottom.1" eclass="HBEFA2/P_7_7" CO2="0.00" CO="0.00" HC="0.00" NOx="0.00" PMx="0.00" fuel="0.00" electricity="0.00" noise="500.04" route="routebottom" type="rl" waiting="0.00" lane="bottom_0" pos="39.22" speed="10.00" angle="56.95" x="201.84" y="22.08"/>
        <vehicle id="rlleft.0" eclass="HBEFA2/P_7_7" CO2="1680.07" CO="0.00" HC="0.29" NOx="2.67" PMx="0.10" fuel="0.67" electricity="0.00" noise="61.77" route="routeleft" type="rl" waiting="0.00" lane="left_0" pos="11.00" speed="10.00" angle="172.35" x="0.30" y="105.13"/>
        <vehicle id="rlleft.1" eclass="HBEFA2/P_7_7" CO2="0.00" CO="0.00" HC="0.00" NOx="0.00" PMx="0.00" fuel="0.00" electricity="0.00" noise="500.04" route="routeleft" type="rl" waiting="0.00" lane="left_0" pos="39.22" speed="10.00" angle="146.95" x="22.08" y="52.81"/>
        <vehicle id="rlright.0" eclass="HBEFA2/P_7_7" CO2="1680.07" CO="0.00" HC="0.29" NOx="2.67" PMx="0.10" fuel="0.67" electricity="0.00" noise="61.77" route="routeright" type="rl" waiting="0.00" lane="right_0" pos="11.00" speed="10.00" angle="352.35" x="254.35" y="149.52"/>
        <vehicle id="rlright.1" eclass="HBEFA2/P_7_7" CO2="0.00" CO="0.00" HC="0.00" NOx="0.00" PMx="0.00" fuel="0.00" electricity="0.00" noise="500.04" route="routeright" type="rl" waiting="0.00" lane="right_0" pos="39.22" speed="10.00" angle="326.97" x="232.57" y="201.84"/>
        <vehicle id="rltop.0" eclass="HBEFA2/P_7_7" CO2="1680.07" CO="0.00" HC="0.29" NOx="2.67" PMx="0.10" fuel="0.67" electricity="0.00" noise="61.77" route="routetop" type="rl" waiting="0.00" lane="top_0" pos="11.00" speed="10.00" angle="262.35" x="105.13" y="254.35"/>
        <vehicle id="rltop.1" eclass="HBEFA2/P_7_7" CO2="0.00" CO="0.00" HC="0.00" NOx="0.00" PMx="0.00" fuel="0.00" electricity="0.00" noise="500.04" route="routetop" type="rl" waiting="0.00" lane="top_0" pos="39.22" speed="10.00" angle="236.97" x="52.81" y="232.57"/>
    </timestep>
    <timestep time="1.20">
        <vehicle id="rlbottom.0" eclass="HBEFA2/P_7_7" CO2="1680.07" CO="0.00" HC="0.29" NOx="2.67" PMx="0.10" fuel="0.67" electricity="0.00" noise="61.77" route="routebottom" type="rl" waiting="0.00" lane="bottom_0" pos="12.00" speed="10.00" angle="81.42" x="151.51" y="0.66"/>
        <vehicle id="rlbottom.1" eclass="HBEFA2/P_7_7" CO2="1680.07" CO="0.00" HC="0.29" NOx="2.67" PMx="0.10" fuel="0.67" electricity="0.00" noise="61.77" route="routebottom" type="rl" waiting="0.00" lane="bottom_0" pos="40.22" speed="10.00" angle="56.07" x="203.48" y="23.26"/>
        <vehicle id="rlleft.0" eclass="HBEFA2/P_7_7" CO2="1680.07" CO="0.00" HC="0.29" NOx="2.67" PMx="0.10" fuel="0.67" electricity="0.00" noise="61.77" route="routeleft" type="rl" waiting="0.00" lane="left_0" pos="12.00" speed="10.00" angle="171.42" x="0.66" y="103.14"/>
        <vehicle id="rlleft.1" eclass="HBEFA2/P_7_7" CO2="1680.07" CO="0.00" HC="0.29" NOx="2.67" PMx="0.10" fuel="0.67" electricity="0.00" noise="61.77" route="routeleft" type="rl" waiting="0.00" lane="left_0" pos="40.22" speed="10.00" angle="146.07" x="23.26" y="51.17"/>
        <vehicle id="rlright.0" eclass="HBEFA2/P_7_7" CO2="1680.07" CO="0.00" HC="0.29" NOx="2.67" PMx="0.10" fuel="0.67" electricity="0.00" noise="61.77" route="routeright" type="rl" waiting="0.00" lane="right_0" pos="12.00" speed="10.00" angle="351.42" x="253.99" y="151.51"/>
        <vehicle id="rlright.1" eclass="HBEFA2/P_7_7" CO2="1680.07" CO="0.00" HC="0.29" NOx="2.67" PMx="0.10" fuel="0.67" electricity="0.00" noise="61.77" route="routeright" type="rl" waiting="0.00" lane="right_0" pos="40.22" speed="10.00" angle="326.05" x="231.39" y="203.48"/>
        <vehicle id="rltop.0" eclass="HBEFA2/P_7_7" CO2="1680.07" CO="0.00" HC="0.29" NOx="2.67" PMx="0.10" fuel="0.67" electricity="0.00" noise="61.77" route="routetop" type="rl" waiting="0.00" lane="top_0" pos="12.00" speed="10.00" angle="261.42" x="103.14" y="253.99"/>
        <vehicle id="rltop.1" eclass="HBEFA2/P_7_7" CO2="1680.07" CO="0.00" HC="0.29" NOx="2.67" PMx="0.10" fuel="0.67" electricity="0.00" noise="61.77" route="routetop" type="rl" waiting="0.00" lane="top_0" pos="40.22" speed="10.00" angle="236.05" x="51.17" y="231.39"/>
    </timestep>
    <timestep time="1.30">
        <vehicle id="rlbottom.0" eclass="HBEFA2/P_7_7" CO2="1680.07" CO="0.00" HC="0.29" NOx="2.67" PMx="0.10" fuel="0.67" electricity="0.00" noise="61.77" route="routebottom" type="rl" waiting="0.00" lane="bottom_0" pos="13.00" speed="10.00" angle="80.55" x="153.50" y="1.04"/>
        <vehicle id="rlbottom.1" eclass="HBEFA2/P_7_7" CO2="1680.07" CO="0.00" HC="0.29" NOx="2.67" PMx="0.10" fuel="0.67" electricity="0.00" noise="61.77" route="routebottom" type="rl" waiting="0.00" lane="bottom_0" pos="41.22" speed="10.00" angle="55.23" x="205.12" y="24.45"/>
        <vehicle id="rlleft.0" eclass="HBEFA2/P_7_7" CO2="1680.07" CO="0.00" HC="0.29" NOx="2.67" PMx="0.10" fuel="0.67" electricity="0.00" noise="61.77" route="routeleft" type="rl" waiting="0.00" lane="left_0" pos="13.00" speed="10.00" angle="170.55" x="1.04" y="101.15"/>
        <vehicle id="rlleft.1" eclass="HBEFA2/P_7_7" CO2="1680.07" CO="0.00" HC="0.29" NOx="2.67" PMx="0.10" fuel="0.67" electricity="0.00" noise="61.77" route="routeleft" type="rl" waiting="0.00" lane="left_0" pos="41.22" speed="10.00" angle="145.23" x="24.45" y="49.53"/>
        <vehicle id="rlright.0" eclass="HBEFA2/P_7_7" CO2="1680.07" CO="0.00" HC="0.29" NOx="2.67" PMx="0.10" fuel="0.67" electricity="0.00" noise="61.77" route="routeright" type="rl" waiting="0.00" lane="right_0" pos="13.00" speed="10.00" angle="350.55" x="253.61" y="153.50"/>
        <vehicle id="rlright.1" eclass="HBEFA2/P_7_7" CO2="1680.07" CO="0.00" HC="0.29" NOx="2.67" PMx="0.10" fuel="0.67" electricity="0.00" noise="61.77" route="routeright" type="rl" waiting="0.00" lane="right_0" pos="41.22" speed="10.00" angle="325.19" x="230.19" y="205.11"/>
        <vehicle id="rltop.0" eclass="HBEFA2/P_7_7" CO2="1680.07" CO="0.00" HC="0.29" NOx="2.67" PMx="0.10" fuel="0.67" electricity="0.00" noise="61.77" route="routetop" type="rl" waiting="0.00" lane="top_0" pos="13.00" speed="10.00" angle="260.55" x="101.15" y="253.61"/>
        <vehicle id="rltop.1" eclass="HBEFA2/P_7_7" CO2="1680.07" CO="0.00" HC="0.29" NOx="2.67" PMx="0.10" fuel="0.67" electricity="0.00" noise="61.77" route="routetop" type="rl" waiting="0.00" lane="top_0" pos="41.22" speed="10.00" angle="235.19" x="49.54" y="230.19"/>
    </timestep>
    <timestep time="1.40">
        <vehicle id="rlbottom.0" eclass="HBEFA2/P_7_7" CO2="1680.07" CO="0.00" HC="0.29" NOx="2.67" PMx="0.10" fuel="0.67" electricity="0.00" noise="61.77" route="routebottom" type="rl" waiting="0.00" lane="bottom_0" pos="14.00" speed="10.00" angle="79.63" x="155.48" y="1.49"/>
        <vehicle id="rlbottom.1" eclass="HBEFA2/P_7_7" CO2="1680.07" CO="0.00" HC="0.29" NOx="2.67" PMx="0.10" fuel="0.67" electricity="0.00" noise="61.77" route="routebottom" type="rl" waiting="0.00" lane="bottom_0" pos="42.22" speed="10.00" angle="54.29" x="206.71" y="25.70"/>
        <vehicle id="rlleft.0" eclass="HBEFA2/P_7_7" CO2="1680.07" CO="0.00" HC="0.29" NOx="2.67" PMx="0.10" fuel="0.67" electricity="0.00" noise="61.77" route="routeleft" type="rl" waiting="0.00" lane="left_0" pos="14.00" speed="10.00" angle="169.63" x="1.49" y="99.17"/>
        <vehicle id="rlleft.1" eclass="HBEFA2/P_7_7" CO2="1680.07" CO="0.00" HC="0.29" NOx="2.67" PMx="0.10" fuel="0.67" electricity="0.00" noise="61.77" route="routeleft" type="rl" waiting="0.00" lane="left_0" pos="42.22" speed="10.00" angle="144.29" x="25.70" y="47.94"/>
        <vehicle id="rlright.0" eclass="HBEFA2/P_7_7" CO2="1680.07" CO="0.00" HC="0.29" NOx="2.67" PMx="0.10" fuel="0.67" electricity="0.00" noise="61.77" route="routeright" type="rl" waiting="0.00" lane="right_0" pos="14.00" speed="10.00" angle="349.63" x="253.16" y="155.48"/>
        <vehicle id="rlright.1" eclass="HBEFA2/P_7_7" CO2="1680.07" CO="0.00" HC="0.29" NOx="2.67" PMx="0.10" fuel="0.67" electricity="0.00" noise="61.77" route="routeright" type="rl" waiting="0.00" lane="right_0" pos="42.22" speed="10.00" angle="324.27" x="228.95" y="206.71"/>
        <vehicle id="rltop.0" eclass="HBEFA2/P_7_7" CO2="1680.07" CO="0.00" HC="0.29" NOx="2.67" PMx="0.10" fuel="0.67" electricity="0.00" noise="61.77" route="routetop" type="rl" waiting="0.00" lane="top_0" pos="14.00" speed="10.00" angle="259.63" x="99.17" y="253.16"/>
        <vehicle id="rltop.1" eclass="HBEFA2/P_7_7" CO2="1680.07" CO="0.00" HC="0.29" NOx="2.67" PMx="0.10" fuel="0.67" electricity="0.00" noise="61.77" route="routetop" type="rl" waiting="0.00" lane="top_0" pos="42.22" speed="10.00" angle="234.27" x="47.94" y="228.94"/>
    </timestep>
    <timestep time="1.50">
        <vehicle id="rlbottom.0" eclass="HBEFA2/P_7_7" CO2="1680.07" CO="0.00" HC="0.29" NOx="2.67" PMx="0.10" fuel="0.67" electricity="0.00" noise="61.77" route="routebottom" type="rl" waiting="0.00" lane="bottom_0" pos="15.00" speed="10.00" angle="78.70" x="157.45" y="1.93"/>
        <vehicle id="rlbottom.1" eclass="HBEFA2/P_7_7" CO2="1680.07" CO="0.00" HC="0.29" NOx="2.67" PMx="0.10" fuel="0.67" electricity="0.00" noise="61.77" route="routebottom" type="rl" waiting="0.00" lane="bottom_0" pos="43.22" speed="10.00" angle="53.36" x="208.30" y="26.95"/>
        <vehicle id="rlleft.0" eclass="HBEFA2/P_7_7" CO2="1680.07" CO="0.00" HC="0.29" NOx="2.67" PMx="0.10" fuel="0.67" electricity="0.00" noise="61.77" route="routeleft" type="rl" waiting="0.00" lane="left_0" pos="15.00" speed="10.00" angle="168.70" x="1.93" y="97.20"/>
        <vehicle id="rlleft.1" eclass="HBEFA2/P_7_7" CO2="1680.07" CO="0.00" HC="0.29" NOx="2.67" PMx="0.10" fuel="0.67" electricity="0.00" noise="61.77" route="routeleft" type="rl" waiting="0.00" lane="left_0" pos="43.22" speed="10.00" angle="143.36" x="26.95" y="46.35"/>
        <vehicle id="rlright.0" eclass="HBEFA2/P_7_7" CO2="1680.07" CO="0.00" HC="0.29" NOx="2.67" PMx="0.10" fuel="0.67" electricity="0.00" noise="61.77" route="routeright" type="rl" waiting="0.00" lane="right_0" pos="15.00" speed="10.00" angle="348.70" x="252.72" y="157.45"/>
        <vehicle id="rlright.1" eclass="HBEFA2/P_7_7" CO2="1680.07" CO="0.00" HC="0.29" NOx="2.67" PMx="0.10" fuel="0.67" electricity="0.00" noise="61.77" route="routeright" type="rl" waiting="0.00" lane="right_0" pos="43.22" speed="10.00" angle="323.35" x="227.70" y="208.30"/>
        <vehicle id="rltop.0" eclass="HBEFA2/P_7_7" CO2="1680.07" CO="0.00" HC="0.29" NOx="2.67" PMx="0.10" fuel="0.67" electricity="0.00" noise="61.77" route="routetop" type="rl" waiting="0.00" lane="top_0" pos="15.00" speed="10.00" angle="258.70" x="97.20" y="252.72"/>
        <vehicle id="rltop.1" eclass="HBEFA2/P_7_7" CO2="1680.07" CO="0.00" HC="0.29" NOx="2.67" PMx="0.10" fuel="0.67" electricity="0.00" noise="61.77" route="routetop" type="rl" waiting="0.00" lane="top_0" pos="43.22" speed="10.00" angle="233.35" x="46.35" y="227.70"/>
    </timestep>
    <timestep time="1.60">
        <vehicle id="rlbottom.0" eclass="HBEFA2/P_7_7" CO2="1680.07" CO="0.00" HC="0.29" NOx="2.67" PMx="0.10" fuel="0.67" electricity="0.00" noise="61.77" route="routebottom" type="rl" waiting="0.00" lane="bottom_0" pos="16.00" speed="10.00" angle="77.85" x="159.42" y="2.43"/>
        <vehicle id="rlbottom.1" eclass="HBEFA2/P_7_7" CO2="1680.07" CO="0.00" HC="0.29" NOx="2.67" PMx="0.10" fuel="0.67" electricity="0.00" noise="61.77" route="routebottom" type="rl" waiting="0.00" lane="bottom_0" pos="44.22" speed="10.00" angle="52.47" x="209.86" y="28.24"/>
        <vehicle id="rlleft.0" eclass="HBEFA2/P_7_7" CO2="1680.07" CO="0.00" HC="0.29" NOx="2.67" PMx="0.10" fuel="0.67" electricity="0.00" noise="61.77" route="routeleft" type="rl" waiting="0.00" lane="left_0" pos="16.00" speed="10.00" angle="167.85" x="2.43" y="95.23"/>
        <vehicle id="rlleft.1" eclass="HBEFA2/P_7_7" CO2="1680.07" CO="0.00" HC="0.29" NOx="2.67" PMx="0.10" fuel="0.67" electricity="0.00" noise="61.77" route="routeleft" type="rl" waiting="0.00" lane="left_0" pos="44.22" speed="10.00" angle="142.47" x="28.24" y="44.79"/>
        <vehicle id="rlright.0" eclass="HBEFA2/P_7_7" CO2="1680.07" CO="0.00" HC="0.29" NOx="2.67" PMx="0.10" fuel="0.67" electricity="0.00" noise="61.77" route="routeright" type="rl" waiting="0.00" lane="right_0" pos="16.00" speed="10.00" angle="347.85" x="252.22" y="159.42"/>
        <vehicle id="rlright.1" eclass="HBEFA2/P_7_7" CO2="1680.07" CO="0.00" HC="0.29" NOx="2.67" PMx="0.10" fuel="0.67" electricity="0.00" noise="61.77" route="routeright" type="rl" waiting="0.00" lane="right_0" pos="44.22" speed="10.00" angle="322.48" x="226.41" y="209.86"/>
        <vehicle id="rltop.0" eclass="HBEFA2/P_7_7" CO2="1680.07" CO="0.00" HC="0.29" NOx="2.67" PMx="0.10" fuel="0.67" electricity="0.00" noise="61.77" route="routetop" type="rl" waiting="0.00" lane="top_0" pos="16.00" speed="10.00" angle="257.85" x="95.23" y="252.22"/>
        <vehicle id="rltop.1" eclass="HBEFA2/P_7_7" CO2="1680.07" CO="0.00" HC="0.29" NOx="2.67" PMx="0.10" fuel="0.67" electricity="0.00" noise="61.77" route="routetop" type="rl" waiting="0.00" lane="top_0" pos="44.22" speed="10.00" angle="232.48" x="44.79" y="226.41"/>
    </timestep>
    <timestep time="1.70">
        <vehicle id="rlbottom.0" eclass="HBEFA2/P_7_7" CO2="1680.07" CO="0.00" HC="0.29" NOx="2.67" PMx="0.10" fuel="0.67" electricity="0.00" noise="61.77" route="routebottom" type="rl" waiting="0.00" lane="bottom_0" pos="17.00" speed="10.00" angle="76.93" x="161.37" y="2.95"/>
        <vehicle id="rlbottom.1" eclass="HBEFA2/P_7_7" CO2="1680.07" CO="0.00" HC="0.29" NOx="2.67" PMx="0.10" fuel="0.67" electricity="0.00" noise="61.77" route="routebottom" type="rl" waiting="0.00" lane="bottom_0" pos="45.22" speed="10.00" angle="51.51" x="211.40" y="29.56"/>
        <vehicle id="rlleft.0" eclass="HBEFA2/P_7_7" CO2="1680.07" CO="0.00" HC="0.29" NOx="2.67" PMx="0.10" fuel="0.67" electricity="0.00" noise="61.77" route="routeleft" type="rl" waiting="0.00" lane="left_0" pos="17.00" speed="10.00" angle="166.93" x="2.95" y="93.28"/>
        <vehicle id="rlleft.1" eclass="HBEFA2/P_7_7" CO2="1680.07" CO="0.00" HC="0.29" NOx="2.67" PMx="0.10" fuel="0.67" electricity="0.00" noise="61.77" route="routeleft" type="rl" waiting="0.00" lane="left_0" pos="45.22" speed="10.00" angle="141.51" x="29.56" y="43.25"/>
        <vehicle id="rlright.0" eclass="HBEFA2/P_7_7" CO2="1680.07" CO="0.00" HC="0.29" NOx="2.67" PMx="0.10" fuel="0.67" electricity="0.00" noise="61.77" route="routeright" type="rl" waiting="0.00" lane="right_0" pos="17.00" speed="10.00" angle="346.93" x="251.70" y="161.37"/>