<?xml version="1.0" encoding="UTF-8"?>

<!-- generated on Mon Feb 27 13:48:35 2017 by SUMO Version 0.29.0
<?xml version="1.0" encoding="UTF-8"?>

<configuration xmlns:xsi="http://www.w3.org/2001/XMLSchema-instance" xsi:noNamespaceSchemaLocation="http://sumo.dlr.de/xsd/sumoConfiguration.xsd">

    <input>
        <net-file value="debug/cfg/test-exp-200m1l.net.xml"/>
        <route-files value="debug/cfg/test-exp-200m1l.rou.xml"/>
        <additional-files value="debug/cfg/test-exp-200m1l.add.xml"/>
    </input>

    <output>
        <netstate-dump value="debug/cfg/data/test-exp-200m1l.netstate.xml"/>
        <emission-output value="debug/cfg/data/test-exp-200m1l.emission.xml"/>
        <amitran-output value="debug/cfg/data/test-exp-200m1l.amitran.xml"/>
        <lanechange-output value="debug/cfg/data/test-exp-200m1l.lanechange.xml"/>
    </output>

    <time>
        <begin value="0"/>
        <end value="3000"/>
        <step-length value="0.1"/>
    </time>

    <traci_server>
        <remote-port value="8873"/>
    </traci_server>

    <gui_only>
        <gui-settings-file value="debug/cfg/test-exp-200m1l.gui.cfg"/>
    </gui_only>

</configuration>
-->

<netstate xmlns:xsi="http://www.w3.org/2001/XMLSchema-instance" xsi:noNamespaceSchemaLocation="http://sumo.dlr.de/xsd/netstate_file.xsd">
    <timestep time="0.00">
        <edge id="bottom">
            <lane id="bottom_0">
                <vehicle id="cfm_slow_0" pos="1.00" speed="0.00"/>
                <vehicle id="cfm_slow_1" pos="39.00" speed="0.00"/>
            </lane>
        </edge>
        <edge id="left">
            <lane id="left_0">
                <vehicle id="cfm_slow_4" pos="3.00" speed="0.00"/>
            </lane>
        </edge>
        <edge id="right">
            <lane id="right_0">
                <vehicle id="cfm_slow_2" pos="27.00" speed="0.00"/>
            </lane>
        </edge>
        <edge id="top">
            <lane id="top_0">
                <vehicle id="cfm_slow_3" pos="15.00" speed="0.00"/>
            </lane>
        </edge>
    </timestep>
    <timestep time="0.10">
        <edge id="bottom">
            <lane id="bottom_0">
                <vehicle id="cfm_slow_0" pos="1.15" speed="1.49"/>
                <vehicle id="cfm_slow_1" pos="39.15" speed="1.49"/>
            </lane>
        </edge>
        <edge id="left">
            <lane id="left_0">
                <vehicle id="cfm_slow_4" pos="3.15" speed="1.49"/>
            </lane>
        </edge>
        <edge id="right">
            <lane id="right_0">
                <vehicle id="cfm_slow_2" pos="27.15" speed="1.49"/>
            </lane>
        </edge>
        <edge id="top">
            <lane id="top_0">
                <vehicle id="cfm_slow_3" pos="15.15" speed="1.49"/>
            </lane>
        </edge>
    </timestep>
    <timestep time="0.20">
        <edge id="bottom">
            <lane id="bottom_0">
                <vehicle id="cfm_slow_0" pos="1.45" speed="2.97"/>
                <vehicle id="cfm_slow_1" pos="39.45" speed="2.97"/>
            </lane>
        </edge>
        <edge id="left">
            <lane id="left_0">
                <vehicle id="cfm_slow_4" pos="3.45" speed="2.97"/>
            </lane>
        </edge>
        <edge id="right">
            <lane id="right_0">
                <vehicle id="cfm_slow_2" pos="27.45" speed="2.97"/>
            </lane>
        </edge>
        <edge id="top">
            <lane id="top_0">
                <vehicle id="cfm_slow_3" pos="15.45" speed="2.97"/>
            </lane>
        </edge>
    </timestep>
    <timestep time="0.30">
        <edge id="bottom">
            <lane id="bottom_0">
                <vehicle id="cfm_slow_0" pos="1.89" speed="4.46"/>
                <vehicle id="cfm_slow_1" pos="39.89" speed="4.46"/>
            </lane>
        </edge>
        <edge id="left">
            <lane id="left_0">
                <vehicle id="cfm_slow_4" pos="3.89" speed="4.46"/>
            </lane>
        </edge>
        <edge id="right">
            <lane id="right_0">
                <vehicle id="cfm_slow_2" pos="27.89" speed="4.46"/>
            </lane>
        </edge>
        <edge id="top">
            <lane id="top_0">
                <vehicle id="cfm_slow_3" pos="15.89" speed="4.46"/>
            </lane>
        </edge>
    </timestep>
    <timestep time="0.40">
        <edge id="bottom">
            <lane id="bottom_0">
                <vehicle id="cfm_slow_0" pos="2.49" speed="5.94"/>
                <vehicle id="cfm_slow_1" pos="40.49" speed="5.94"/>
            </lane>
        </edge>
        <edge id="left">
            <lane id="left_0">
                <vehicle id="cfm_slow_4" pos="4.49" speed="5.94"/>
            </lane>
        </edge>
        <edge id="right">
            <lane id="right_0">
                <vehicle id="cfm_slow_2" pos="28.49" speed="5.94"/>
            </lane>
        </edge>
        <edge id="top">
            <lane id="top_0">
                <vehicle id="cfm_slow_3" pos="16.49" speed="5.94"/>
            </lane>
        </edge>
    </timestep>
    <timestep time="0.50">
        <edge id="bottom">
            <lane id="bottom_0">
                <vehicle id="cfm_slow_0" pos="3.23" speed="7.43"/>
                <vehicle id="cfm_slow_1" pos="41.23" speed="7.43"/>
            </lane>
        </edge>
        <edge id="left">
            <lane id="left_0">
                <vehicle id="cfm_slow_4" pos="5.23" speed="7.43"/>
            </lane>
        </edge>
        <edge id="right">
            <lane id="right_0">
                <vehicle id="cfm_slow_2" pos="29.23" speed="7.43"/>
            </lane>
        </edge>
        <edge id="top">
            <lane id="top_0">
                <vehicle id="cfm_slow_3" pos="17.23" speed="7.43"/>
            </lane>
        </edge>
    </timestep>
    <timestep time="0.60">
        <edge id="bottom">
            <lane id="bottom_0">
                <vehicle id="cfm_slow_0" pos="4.12" speed="8.91"/>
                <vehicle id="cfm_slow_1" pos="42.12" speed="8.91"/>
            </lane>
        </edge>
        <edge id="left">
            <lane id="left_0">
                <vehicle id="cfm_slow_4" pos="6.12" speed="8.91"/>
            </lane>
        </edge>
        <edge id="right">
            <lane id="right_0">
                <vehicle id="cfm_slow_2" pos="30.12" speed="8.91"/>
            </lane>
        </edge>
        <edge id="top">
            <lane id="top_0">
                <vehicle id="cfm_slow_3" pos="18.12" speed="8.91"/>
            </lane>
        </edge>
    </timestep>
    <timestep time="0.70">
        <edge id="bottom">
            <lane id="bottom_0">
                <vehicle id="cfm_slow_0" pos="5.16" speed="10.40"/>
                <vehicle id="cfm_slow_1" pos="43.16" speed="10.40"/>
            </lane>
        </edge>
        <edge id="left">
            <lane id="left_0">
                <vehicle id="cfm_slow_4" pos="7.16" speed="10.40"/>
            </lane>
        </edge>
        <edge id="right">
            <lane id="right_0">
                <vehicle id="cfm_slow_2" pos="31.16" speed="10.40"/>
            </lane>
        </edge>
        <edge id="top">
            <lane id="top_0">
                <vehicle id="cfm_slow_3" pos="19.16" speed="10.40"/>
            </lane>
        </edge>
    </timestep>
    <timestep time="0.80">
        <edge id="bottom">
            <lane id="bottom_0">
                <vehicle id="cfm_slow_0" pos="6.35" speed="11.88"/>
                <vehicle id="cfm_slow_1" pos="44.35" speed="11.88"/>
            </lane>
        </edge>
        <edge id="left">
            <lane id="left_0">
                <vehicle id="cfm_slow_4" pos="8.35" speed="11.88"/>
            </lane>
        </edge>
        <edge id="right">
            <lane id="right_0">
                <vehicle id="cfm_slow_2" pos="32.35" speed="11.88"/>
            </lane>
        </edge>
        <edge id="top">
            <lane id="top_0">
                <vehicle id="cfm_slow_3" pos="20.35" speed="11.88"/>
            </lane>
        </edge>
    </timestep>
    <timestep time="0.90">
        <edge id="bottom">
            <lane id="bottom_0">
                <vehicle id="cfm_slow_0" pos="7.68" speed="13.37"/>
                <vehicle id="cfm_slow_1" pos="45.68" speed="13.37"/>
            </lane>
        </edge>
        <edge id="left">
            <lane id="left_0">
                <vehicle id="cfm_slow_4" pos="9.68" speed="13.37"/>
            </lane>
        </edge>
        <edge id="right">
            <lane id="right_0">
                <vehicle id="cfm_slow_2" pos="33.68" speed="13.37"/>
            </lane>
        </edge>
        <edge id="top">
            <lane id="top_0">
                <vehicle id="cfm_slow_3" pos="21.68" speed="13.37"/>
            </lane>
        </edge>
    </timestep>
    <timestep time="1.00">
        <edge id="bottom">
            <lane id="bottom_0">
                <vehicle id="cfm_slow_0" pos="9.17" speed="14.85"/>
                <vehicle id="cfm_slow_1" pos="47.17" speed="14.85"/>
            </lane>
        </edge>
        <edge id="left">
            <lane id="left_0">
                <vehicle id="cfm_slow_4" pos="11.17" speed="14.85"/>
            </lane>
        </edge>
        <edge id="right">
            <lane id="right_0">
                <vehicle id="cfm_slow_2" pos="35.17" speed="14.85"/>
            </lane>
        </edge>
        <edge id="top">
            <lane id="top_0">
                <vehicle id="cfm_slow_3" pos="23.17" speed="14.85"/>
            </lane>
        </edge>
    </timestep>
    <timestep time="1.10">
        <edge id="bottom">
            <lane id="bottom_0">
                <vehicle id="cfm_slow_0" pos="10.80" speed="16.34"/>
                <vehicle id="cfm_slow_1" pos="48.80" speed="16.34"/>
            </lane>
        </edge>
        <edge id="left">
            <lane id="left_0">
                <vehicle id="cfm_slow_4" pos="12.80" speed="16.34"/>
            </lane>
        </edge>
        <edge id="right">
            <lane id="right_0">
                <vehicle id="cfm_slow_2" pos="36.80" speed="16.34"/>
            </lane>
        </edge>
        <edge id="top">
            <lane id="top_0">
                <vehicle id="cfm_slow_3" pos="24.80" speed="16.34"/>
            </lane>
        </edge>
    </timestep>
    <timestep time="1.20">
        <edge id="bottom">
            <lane id="bottom_0">
                <vehicle id="cfm_slow_0" pos="12.58" speed="17.82"/>
            </lane>
        </edge>
        <edge id="left">
            <lane id="left_0">
                <vehicle id="cfm_slow_4" pos="14.58" speed="17.82"/>
            </lane>
        </edge>
        <edge id="right">
            <lane id="right_0">
                <vehicle id="cfm_slow_1" pos="0.58" speed="17.82"/>
                <vehicle id="cfm_slow_2" pos="38.58" speed="17.82"/>
            </lane>
        </edge>
        <edge id="top">
            <lane id="top_0">
                <vehicle id="cfm_slow_3" pos="26.58" speed="17.82"/>
            </lane>
        </edge>
    </timestep>
    <timestep time="1.30">
        <edge id="bottom">
            <lane id="bottom_0">
                <vehicle id="cfm_slow_0" pos="14.51" speed="19.31"/>
            </lane>
        </edge>
        <edge id="left">
            <lane id="left_0">
                <vehicle id="cfm_slow_4" pos="16.51" speed="19.31"/>
            </lane>
        </edge>
        <edge id="right">
            <lane id="right_0">
                <vehicle id="cfm_slow_1" pos="2.51" speed="19.31"/>
                <vehicle id="cfm_slow_2" pos="40.51" speed="19.31"/>
            </lane>
        </edge>
        <edge id="top">
            <lane id="top_0">
                <vehicle id="cfm_slow_3" pos="28.51" speed="19.31"/>
            </lane>
        </edge>
    </timestep>
    <timestep time="1.40">
        <edge id="bottom">
            <lane id="bottom_0">
                <vehicle id="cfm_slow_0" pos="16.59" speed="20.79"/>
            </lane>
        </edge>
        <edge id="left">
            <lane id="left_0">
                <vehicle id="cfm_slow_4" pos="18.59" speed="20.79"/>
            </lane>
        </edge>
        <edge id="right">
            <lane id="right_0">
                <vehicle id="cfm_slow_1" pos="4.59" speed="20.79"/>
                <vehicle id="cfm_slow_2" pos="42.59" speed="20.79"/>
            </lane>
        </edge>
        <edge id="top">
            <lane id="top_0">
                <vehicle id="cfm_slow_3" pos="30.59" speed="20.79"/>
            </lane>
        </edge>
    </timestep>
    <timestep time="1.50">
        <edge id="bottom">
            <lane id="bottom_0">
                <vehicle id="cfm_slow_0" pos="18.82" speed="22.28"/>
            </lane>
        </edge>
        <edge id="left">
            <lane id="left_0">
                <vehicle id="cfm_slow_4" pos="20.82" speed="22.28"/>
            </lane>
        </edge>
        <edge id="right">
            <lane id="right_0">
                <vehicle id="cfm_slow_1" pos="6.82" speed="22.28"/>
                <vehicle id="cfm_slow_2" pos="44.82" speed="22.28"/>
            </lane>
        </edge>
        <edge id="top">
            <lane id="top_0">
                <vehicle id="cfm_slow_3" pos="32.82" speed="22.28"/>
            </lane>
        </edge>
    </timestep>
    <timestep time="1.60">
        <edge id="bottom">
            <lane id="bottom_0">
                <vehicle id="cfm_slow_0" pos="21.20" speed="23.76"/>
            </lane>
        </edge>
        <edge id="left">
            <lane id="left_0">
                <vehicle id="cfm_slow_4" pos="23.20" speed="23.76"/>
            </lane>
        </edge>
        <edge id="right">
            <lane id="right_0">
                <vehicle id="cfm_slow_1" pos="9.20" speed="23.76"/>
                <vehicle id="cfm_slow_2" pos="47.20" speed="23.76"/>
            </lane>
        </edge>
        <edge id="top">
            <lane id="top_0">
                <vehicle id="cfm_slow_3" pos="35.20" speed="23.76"/>
            </lane>
        </edge>
    </timestep>
    <timestep time="1.70">
        <edge id="bottom">
            <lane id="bottom_0">
                <vehicle id="cfm_slow_0" pos="23.72" speed="25.25"/>
            </lane>
        </edge>
        <edge id="left">
            <lane id="left_0">
                <vehicle id="cfm_slow_4" pos="25.72" speed="25.25"/>
            </lane>
        </edge>
        <edge id="right">
            <lane id="right_0">
                <vehicle id="cfm_slow_1" pos="11.72" speed="25.25"/>
                <vehicle id="cfm_slow_2" pos="49.72" speed="25.25"/>
            </lane>
        </edge>
        <edge id="top">
            <lane id="top_0">
                <vehicle id="cfm_slow_3" pos="37.72" speed="25.25"/>
            </lane>
        </edge>
    </timestep>
    <timestep time="1.80">
        <edge id="bottom">
            <lane id="bottom_0">
                <vehicle id="cfm_slow_0" pos="26.40" speed="26.73"/>
            </lane>
        </edge>
        <edge id="left">
            <lane id="left_0">
                <vehicle id="cfm_slow_4" pos="28.40" speed="26.73"/>
            </lane>
        </edge>
        <edge id="right">
            <lane id="right_0">
                <vehicle id="cfm_slow_1" pos="14.40" speed="26.73"/>
            </lane>
        </edge>
        <edge id="top">
            <lane id="top_0">
                <vehicle id="cfm_slow_2" pos="2.40" speed="26.73"/>
                <vehicle id="cfm_slow_3" pos="40.40" speed="26.73"/>
            </lane>
        </edge>
    </timestep>
    <timestep time="1.90">
        <edge id="bottom">
            <lane id="bottom_0">
                <vehicle id="cfm_slow_0" pos="29.22" speed="28.22"/>
            </lane>
        </edge>
        <edge id="left">
            <lane id="left_0">
                <vehicle id="cfm_slow_4" pos="31.22" speed="28.22"/>
            </lane>
        </edge>
        <edge id="right">
            <lane id="right_0">
                <vehicle id="cfm_slow_1" pos="17.22" speed="28.22"/>
            </lane>
        </edge>
        <edge id="top">
            <lane id="top_0">
                <vehicle id="cfm_slow_2" pos="5.22" speed="28.22"/>
                <vehicle id="cfm_slow_3" pos="43.22" speed="28.22"/>
            </lane>
        </edge>
    </timestep>
    <timestep time="2.00">
        <edge id="bottom">
            <lane id="bottom_0">
                <vehicle id="cfm_slow_0" pos="32.19" speed="29.70"/>
            </lane>
        </edge>
        <edge id="left">
            <lane id="left_0">
                <vehicle id="cfm_slow_4" pos="34.19" speed="29.70"/>
            </lane>
        </edge>
        <edge id="right">
            <lane id="right_0">
                <vehicle id="cfm_slow_1" pos="20.19" speed="29.70"/>
            </lane>
        </edge>
        <edge id="top">
            <lane id="top_0">
                <vehicle id="cfm_slow_2" pos="8.19" speed="29.70"/>
                <vehicle id="cfm_slow_3" pos="46.19" speed="29.70"/>
            </lane>
        </edge>
    </timestep>
    <timestep time="2.10">
        <edge id="bottom">
            <lane id="bottom_0">
                <vehicle id="cfm_slow_0" pos="35.31" speed="31.19"/>
            </lane>
        </edge>
        <edge id="left">
            <lane id="left_0">
                <vehicle id="cfm_slow_4" pos="37.31" speed="31.19"/>
            </lane>
        </edge>
        <edge id="right">
            <lane id="right_0">
                <vehicle id="cfm_slow_1" pos="23.31" speed="31.19"/>
            </lane>
        </edge>
        <edge id="top">
            <lane id="top_0">
                <vehicle id="cfm_slow_2" pos="11.31" speed="31.19"/>
                <vehicle id="cfm_slow_3" pos="49.31" speed="31.19"/>
            </lane>
        </edge>
    </timestep>
    <timestep time="2.20">
        <edge id="bottom">
            <lane id="bottom_0">
                <vehicle id="cfm_slow_0" pos="38.56" speed="32.56"/>
            </lane>
        </edge>
        <edge id="left">
            <lane id="left_0">
                <vehicle id="cfm_slow_3" pos="2.56" speed="32.56"/>
                <vehicle id="cfm_slow_4" pos="40.57" speed="32.67"/>
            </lane>
        </edge>
        <edge id="right">
            <lane id="right_0">
                <vehicle id="cfm_slow_1" pos="26.56" speed="32.56"/>
            </lane>
        </edge>
        <edge id="top">
            <lane id="top_0">
                <vehicle id="cfm_slow_2" pos="14.56" speed="32.56"/>
            </lane>
        </edge>
    </timestep>
    <timestep time="2.30">
        <edge id="bottom">
            <lane id="bottom_0">
                <vehicle id="cfm_slow_0" pos="41.94" speed="33.79"/>
            </lane>
        </edge>
        <edge id="left">
            <lane id="left_0">
                <vehicle id="cfm_slow_3" pos="5.94" speed="33.80"/>
                <vehicle id="cfm_slow_4" pos="43.99" speed="34.16"/>
            </lane>
        </edge>
        <edge id="right">
            <lane id="right_0">
                <vehicle id="cfm_slow_1" pos="29.94" speed="33.79"/>
            </lane>
        </edge>
        <edge id="top">
            <lane id="top_0">
                <vehicle id="cfm_slow_2" pos="17.94" speed="33.79"/>
            </lane>
        </edge>
    </timestep>
    <timestep time="2.40">
        <edge id="bottom">
            <lane id="bottom_0">
                <vehicle id="cfm_slow_0" pos="45.43" speed="34.90"/>
            </lane>
        </edge>
        <edge id="left">
            <lane id="left_0">
                <vehicle id="cfm_slow_3" pos="9.44" speed="34.95"/>
                <vehicle id="cfm_slow_4" pos="47.55" speed="35.64"/>
            </lane>
        </edge>
        <edge id="right">
            <lane id="right_0">
                <vehicle id="cfm_slow_1" pos="33.43" speed="34.90"/>
            </lane>
        </edge>
        <edge id="top">
            <lane id="top_0">
                <vehicle id="cfm_slow_2" pos="21.43" speed="34.90"/>
            </lane>
        </edge>
    </timestep>
    <timestep time="2.50">
        <edge id="bottom">
            <lane id="bottom_0">
                <vehicle id="cfm_slow_4" pos="1.27" speed="37.13"/>
                <vehicle id="cfm_slow_0" pos="49.02" speed="35.90"/>
            </lane>
        </edge>
        <edge id="left">
            <lane id="left_0">
                <vehicle id="cfm_slow_3" pos="13.04" speed="36.02"/>
            </lane>
        </edge>
        <edge id="right">
            <lane id="right_0">
                <vehicle id="cfm_slow_1" pos="37.02" speed="35.90"/>
            </lane>
        </edge>
        <edge id="top">
            <lane id="top_0">
                <vehicle id="cfm_slow_2" pos="25.02" speed="35.90"/>
            </lane>
        </edge>
    </timestep>
    <timestep time="2.60">
        <edge id="bottom">
            <lane id="bottom_0">
                <vehicle id="cfm_slow_4" pos="5.13" speed="38.61"/>
            </lane>
        </edge>
        <edge id="left">
            <lane id="left_0">
                <vehicle id="cfm_slow_3" pos="16.74" speed="37.05"/>
            </lane>
        </edge>
        <edge id="right">
            <lane id="right_0">
                <vehicle id="cfm_slow_0" pos="2.70" speed="36.80"/>
                <vehicle id="cfm_slow_1" pos="40.70" speed="36.80"/>
            </lane>
        </edge>
        <edge id="top">
            <lane id="top_0">
                <vehicle id="cfm_slow_2" pos="28.70" speed="36.82"/>
            </lane>
        </edge>
    </timestep>
    <timestep time="2.70">
        <edge id="bottom">
            <lane id="bottom_0">
                <vehicle id="cfm_slow_4" pos="9.13" speed="40.01"/>
            </lane>
        </edge>
        <edge id="left">
            <lane id="left_0">
                <vehicle id="cfm_slow_3" pos="20.55" speed="38.03"/>
            </lane>
        </edge>
        <edge id="right">
            <lane id="right_0">
                <vehicle id="cfm_slow_0" pos="6.46" speed="37.61"/>
                <vehicle id="cfm_slow_1" pos="44.46" speed="37.61"/>
            </lane>
        </edge>
        <edge id="top">
            <lane id="top_0">
                <vehicle id="cfm_slow_2" pos="32.47" speed="37.66"/>
            </lane>
        </edge>
    </timestep>
    <timestep time="2.80">
        <edge id="bottom">
            <lane id="bottom_0">
                <vehicle id="cfm_slow_4" pos="13.25" speed="41.19"/>
            </lane>
        </edge>
        <edge id="left">
            <lane id="left_0">
                <vehicle id="cfm_slow_3" pos="24.44" speed="38.97"/>
            </lane>
        </edge>
        <edge id="right">
            <lane id="right_0">
                <vehicle id="cfm_slow_0" pos="10.30" speed="38.34"/>
                <vehicle id="cfm_slow_1" pos="48.30" speed="38.35"/>
            </lane>
        </edge>
        <edge id="top">
            <lane id="top_0">
                <vehicle id="cfm_slow_2" pos="36.31" speed="38.43"/>
            </lane>
        </edge>
    </timestep>
    <timestep time="2.90">
        <edge id="bottom">
            <lane id="bottom_0">
                <vehicle id="cfm_slow_4" pos="17.47" speed="42.18"/>
            </lane>
        </edge>
        <edge id="left">
            <lane id="left_0">
                <vehicle id="cfm_slow_3" pos="28.43" speed="39.87"/>
            </lane>
        </edge>
        <edge id="right">
            <lane id="right_0">
                <vehicle id="cfm_slow_0" pos="14.20" speed="39.00"/>
            </lane>
        </edge>
        <edge id="top">
            <lane id="top_0">
                <vehicle id="cfm_slow_1" pos="2.20" speed="39.02"/>
                <vehicle id="cfm_slow_2" pos="40.23" speed="39.14"/>
            </lane>
        </edge>
    </timestep>
    <timestep time="3.00">
        <edge id="bottom">
            <lane id="bottom_0">
                <vehicle id="cfm_slow_4" pos="21.77" speed="43.01"/>
            </lane>
        </edge>
        <edge id="left">
            <lane id="left_0">
                <vehicle id="cfm_slow_3" pos="32.50" speed="40.71"/>
            </lane>
        </edge>
        <edge id="right">
            <lane id="right_0">
                <vehicle id="cfm_slow_0" pos="18.16" speed="39.60"/>
            </lane>
        </edge>
        <edge id="top">
            <lane id="top_0">
                <vehicle id="cfm_slow_1" pos="6.16" speed="39.63"/>
                <vehicle id="cfm_slow_2" pos="44.21" speed="39.82"/>
            </lane>
        </edge>
    </timestep>
    <timestep time="3.10">
        <edge id="bottom">
            <lane id="bottom_0">
                <vehicle id="cfm_slow_4" pos="26.14" speed="43.70"/>
            </lane>
        </edge>
        <edge id="left">
            <lane id="left_0">
                <vehicle id="cfm_slow_3" pos="36.65" speed="41.49"/>
            </lane>
        </edge>
        <edge id="right">
            <lane id="right_0">
                <vehicle id="cfm_slow_0" pos="22.17" speed="40.14"/>
            </lane>
        </edge>
        <edge id="top">
            <lane id="top_0">
                <vehicle id="cfm_slow_1" pos="10.18" speed="40.18"/>
                <vehicle id="cfm_slow_2" pos="48.25" speed="40.45"/>
            </lane>
        </edge>
    </timestep>
    <timestep time="3.20">
        <edge id="bottom">
            <lane id="bottom_0">
                <vehicle id="cfm_slow_4" pos="30.57" speed="44.27"/>
            </lane>
        </edge>
        <edge id="left">
            <lane id="left_0">
                <vehicle id="cfm_slow_2" pos="2.36" speed="41.04"/>
                <vehicle id="cfm_slow_3" pos="40.87" speed="42.20"/>
            </lane>
        </edge>
        <edge id="right">
            <lane id="right_0">
                <vehicle id="cfm_slow_0" pos="26.23" speed="40.62"/>
            </lane>
        </edge>
        <edge id="top">
            <lane id="top_0">
                <vehicle id="cfm_slow_1" pos="14.25" speed="40.69"/>
            </lane>
        </edge>
    </timestep>
    <timestep time="3.30">
        <edge id="bottom">
            <lane id="bottom_0">
                <vehicle id="cfm_slow_4" pos="35.04" speed="44.74"/>
            </lane>
        </edge>
        <edge id="left">
            <lane id="left_0">
                <vehicle id="cfm_slow_2" pos="6.52" speed="41.60"/>
                <vehicle id="cfm_slow_3" pos="45.16" speed="42.85"/>
            </lane>
        </edge>
        <edge id="right">
            <lane id="right_0">
                <vehicle id="cfm_slow_0" pos="30.34" speed="41.07"/>
            </lane>
        </edge>
        <edge id="top">
            <lane id="top_0">
                <vehicle id="cfm_slow_1" pos="18.37" speed="41.16"/>
            </lane>
        </edge>
    </timestep>
    <timestep time="3.40">
        <edge id="bottom">
            <lane id="bottom_0">
                <vehicle id="cfm_slow_4" pos="39.55" speed="45.13"/>
            </lane>
        </edge>
        <edge id="left">
            <lane id="left_0">
                <vehicle id="cfm_slow_2" pos="10.73" speed="42.12"/>
                <vehicle id="cfm_slow_3" pos="49.50" speed="43.44"/>
            </lane>
        </edge>
        <edge id="right">
            <lane id="right_0">
                <vehicle id="cfm_slow_0" pos="34.49" speed="41.47"/>
            </lane>
        </edge>
        <edge id="top">
            <lane id="top_0">
                <vehicle id="cfm_slow_1" pos="22.53" speed="41.60"/>
            </lane>
        </edge>
    </timestep>
    <timestep time="3.50">
        <edge id="bottom">
            <lane id="bottom_0">
                <vehicle id="cfm_slow_3" pos="3.90" speed="43.96"/>
                <vehicle id="cfm_slow_4" pos="44.10" speed="45.44"/>
            </lane>
        </edge>
        <edge id="left">
            <lane id="left_0">
                <vehicle id="cfm_slow_2" pos="14.99" speed="42.61"/>
            </lane>
        </edge>
        <edge id="right">
            <lane id="right_0">
                <vehicle id="cfm_slow_0" pos="38.67" speed="41.83"/>
            </lane>
        </edge>
        <edge id="top">
            <lane id="top_0">
                <vehicle id="cfm_slow_1" pos="26.73" speed="42.01"/>
            </lane>
        </edge>
    </timestep>
    <timestep time="3.60">
        <edge id="bottom">
            <lane id="bottom_0">
                <vehicle id="cfm_slow_3" pos="8.34" speed="44.43"/>
                <vehicle id="cfm_slow_4" pos="48.67" speed="45.69"/>
            </lane>
        </edge>
        <edge id="left">
            <lane id="left_0">
                <vehicle id="cfm_slow_2" pos="19.30" speed="43.07"/>
            </lane>
        </edge>
        <edge id="right">
            <lane id="right_0">
                <vehicle id="cfm_slow_0" pos="42.89" speed="42.17"/>
            </lane>
        </edge>
        <edge id="top">
            <lane id="top_0">
                <vehicle id="cfm_slow_1" pos="30.97" speed="42.39"/>
            </lane>
        </edge>
    </timestep>
    <timestep time="3.70">
        <edge id="bottom">
            <lane id="bottom_0">
                <vehicle id="cfm_slow_3" pos="12.82" speed="44.84"/>
            </lane>
        </edge>
        <edge id="left">
            <lane id="left_0">
                <vehicle id="cfm_slow_2" pos="23.65" speed="43.50"/>
            </lane>
        </edge>
        <edge id="right">
            <lane id="right_0">
                <vehicle id="cfm_slow_4" pos="3.25" speed="45.89"/>
                <vehicle id="cfm_slow_0" pos="47.13" speed="42.48"/>
            </lane>
        </edge>
        <edge id="top">
            <lane id="top_0">