<?xml version="1.0" encoding="UTF-8"?>

<!-- generated on Mon Feb 27 13:48:35 2017 by SUMO Version 0.29.0
<?xml version="1.0" encoding="UTF-8"?>

<configuration xmlns:xsi="http://www.w3.org/2001/XMLSchema-instance" xsi:noNamespaceSchemaLocation="http://sumo.dlr.de/xsd/sumoConfiguration.xsd">

    <input>
        <net-file value="debug/cfg/test-exp-200m1l.net.xml"/>
        <route-files value="debug/cfg/test-exp-200m1l.rou.xml"/>
        <additional-files value="debug/cfg/test-exp-200m1l.add.xml"/>
    </input>

    <output>
        <netstate-dump value="debug/cfg/data/test-exp-200m1l.netstate.xml"/>
        <emission-output value="debug/cfg/data/test-exp-200m1l.emission.xml"/>
        <amitran-output value="debug/cfg/data/test-exp-200m1l.amitran.xml"/>
        <lanechange-output value="debug/cfg/data/test-exp-200m1l.lanechange.xml"/>
    </output>

    <time>
        <begin value="0"/>
        <end value="3000"/>
        <step-length value="0.1"/>
    </time>

    <traci_server>
        <remote-port value="8873"/>
    </traci_server>

    <gui_only>
        <gui-settings-file value="debug/cfg/test-exp-200m1l.gui.cfg"/>
    </gui_only>

</configuration>
-->

<emission-export xmlns:xsi="http://www.w3.org/2001/XMLSchema-instance" xsi:noNamespaceSchemaLocation="http://sumo.dlr.de/xsd/emission_file.xsd">
    <timestep time="0.00">
        <vehicle id="cfm_slow_0" eclass="HBEFA3/PC_G_EU4" CO2="2624.72" CO="164.78" HC="0.81" NOx="1.20" PMx="0.07" fuel="1.13" electricity="0.00" noise="55.94" route="routebottom" type="cfm_slow" waiting="0.00" lane="bottom_0" pos="1.00" speed="0.00" angle="92.66" x="65.74" y="-1.61"/>
        <vehicle id="cfm_slow_1" eclass="HBEFA3/PC_G_EU4" CO2="2624.72" CO="164.78" HC="0.81" NOx="1.20" PMx="0.07" fuel="1.13" electricity="0.00" noise="55.94" route="routebottom" type="cfm_slow" waiting="0.00" lane="bottom_0" pos="39.00" speed="0.00" angle="24.30" x="125.09" y="41.53"/>
        <vehicle id="cfm_slow_2" eclass="HBEFA3/PC_G_EU4" CO2="2624.72" CO="164.78" HC="0.81" NOx="1.20" PMx="0.07" fuel="1.13" electricity="0.00" noise="55.94" route="routeright" type="cfm_slow" waiting="0.00" lane="right_0" pos="27.00" speed="0.00" angle="315.98" x="106.86" y="112.65"/>
        <vehicle id="cfm_slow_3" eclass="HBEFA3/PC_G_EU4" CO2="2624.72" CO="164.78" HC="0.81" NOx="1.20" PMx="0.07" fuel="1.13" electricity="0.00" noise="55.94" route="routetop" type="cfm_slow" waiting="0.00" lane="top_0" pos="15.00" speed="0.00" angle="247.45" x="34.00" y="121.84"/>
        <vehicle id="cfm_slow_4" eclass="HBEFA3/PC_G_EU4" CO2="2624.72" CO="164.78" HC="0.81" NOx="1.20" PMx="0.07" fuel="1.13" electricity="0.00" noise="55.94" route="routeleft" type="cfm_slow" waiting="0.00" lane="left_0" pos="3.00" speed="0.00" angle="179.11" x="-1.35" y="57.49"/>
    </timestep>
    <timestep time="0.10">
        <vehicle id="cfm_slow_0" eclass="HBEFA3/PC_G_EU4" CO2="8198.78" CO="254.21" HC="1.36" NOx="3.79" PMx="0.20" fuel="3.52" electricity="0.00" noise="121.85" route="routebottom" type="cfm_slow" waiting="0.00" lane="bottom_0" pos="1.15" speed="1.49" angle="92.39" x="66.04" y="-1.60"/>
        <vehicle id="cfm_slow_1" eclass="HBEFA3/PC_G_EU4" CO2="8198.78" CO="254.21" HC="1.36" NOx="3.79" PMx="0.20" fuel="3.52" electricity="0.00" noise="121.85" route="routebottom" type="cfm_slow" waiting="0.00" lane="bottom_0" pos="39.15" speed="1.49" angle="24.03" x="125.19" y="41.81"/>
        <vehicle id="cfm_slow_2" eclass="HBEFA3/PC_G_EU4" CO2="8198.78" CO="254.21" HC="1.36" NOx="3.79" PMx="0.20" fuel="3.52" electricity="0.00" noise="121.85" route="routeright" type="cfm_slow" waiting="0.00" lane="right_0" pos="27.15" speed="1.49" angle="315.69" x="106.62" y="112.85"/>
        <vehicle id="cfm_slow_3" eclass="HBEFA3/PC_G_EU4" CO2="8198.78" CO="254.21" HC="1.36" NOx="3.79" PMx="0.20" fuel="3.52" electricity="0.00" noise="121.85" route="routetop" type="cfm_slow" waiting="0.00" lane="top_0" pos="15.15" speed="1.49" angle="247.17" x="33.73" y="121.71"/>
        <vehicle id="cfm_slow_4" eclass="HBEFA3/PC_G_EU4" CO2="8198.78" CO="254.21" HC="1.36" NOx="3.79" PMx="0.20" fuel="3.52" electricity="0.00" noise="121.85" route="routeleft" type="cfm_slow" waiting="0.00" lane="left_0" pos="3.15" speed="1.49" angle="178.84" x="-1.32" y="57.19"/>
    </timestep>
    <timestep time="0.20">
        <vehicle id="cfm_slow_0" eclass="HBEFA3/PC_G_EU4" CO2="13807.46" CO="346.19" HC="1.91" NOx="6.40" PMx="0.34" fuel="5.94" electricity="0.00" noise="122.43" route="routebottom" type="cfm_slow" waiting="0.00" lane="bottom_0" pos="1.45" speed="2.97" angle="91.90" x="66.65" y="-1.58"/>
        <vehicle id="cfm_slow_1" eclass="HBEFA3/PC_G_EU4" CO2="13807.46" CO="346.19" HC="1.91" NOx="6.40" PMx="0.34" fuel="5.94" electricity="0.00" noise="122.43" route="routebottom" type="cfm_slow" waiting="0.00" lane="bottom_0" pos="39.45" speed="2.97" angle="23.50" x="125.40" y="42.39"/>
        <vehicle id="cfm_slow_2" eclass="HBEFA3/PC_G_EU4" CO2="13807.46" CO="346.19" HC="1.91" NOx="6.40" PMx="0.34" fuel="5.94" electricity="0.00" noise="122.43" route="routeright" type="cfm_slow" waiting="0.00" lane="right_0" pos="27.45" speed="2.97" angle="315.11" x="106.16" y="113.24"/>
        <vehicle id="cfm_slow_3" eclass="HBEFA3/PC_G_EU4" CO2="13807.46" CO="346.19" HC="1.91" NOx="6.40" PMx="0.34" fuel="5.94" electricity="0.00" noise="122.43" route="routetop" type="cfm_slow" waiting="0.00" lane="top_0" pos="15.45" speed="2.97" angle="246.70" x="33.19" y="121.43"/>
        <vehicle id="cfm_slow_4" eclass="HBEFA3/PC_G_EU4" CO2="13807.46" CO="346.19" HC="1.91" NOx="6.40" PMx="0.34" fuel="5.94" electricity="0.00" noise="122.43" route="routeleft" type="cfm_slow" waiting="0.00" lane="left_0" pos="3.45" speed="2.97" angle="178.30" x="-1.26" y="56.58"/>
    </timestep>
    <timestep time="0.30">
        <vehicle id="cfm_slow_0" eclass="HBEFA3/PC_G_EU4" CO2="19450.77" CO="440.74" HC="2.48" NOx="9.02" PMx="0.48" fuel="8.36" electricity="0.00" noise="123.03" route="routebottom" type="cfm_slow" waiting="0.00" lane="bottom_0" pos="1.89" speed="4.46" angle="91.09" x="67.56" y="-1.52"/>
        <vehicle id="cfm_slow_1" eclass="HBEFA3/PC_G_EU4" CO2="19450.77" CO="440.74" HC="2.48" NOx="9.02" PMx="0.48" fuel="8.36" electricity="0.00" noise="123.03" route="routebottom" type="cfm_slow" waiting="0.00" lane="bottom_0" pos="39.89" speed="4.46" angle="22.76" x="125.70" y="43.25"/>
        <vehicle id="cfm_slow_2" eclass="HBEFA3/PC_G_EU4" CO2="19450.77" CO="440.74" HC="2.48" NOx="9.02" PMx="0.48" fuel="8.36" electricity="0.00" noise="123.03" route="routeright" type="cfm_slow" waiting="0.00" lane="right_0" pos="27.89" speed="4.46" angle="314.23" x="105.46" y="113.83"/>
        <vehicle id="cfm_slow_3" eclass="HBEFA3/PC_G_EU4" CO2="19450.77" CO="440.74" HC="2.48" NOx="9.02" PMx="0.48" fuel="8.36" electricity="0.00" noise="123.03" route="routetop" type="cfm_slow" waiting="0.00" lane="top_0" pos="15.89" speed="4.46" angle="245.90" x="32.39" y="120.98"/>
        <vehicle id="cfm_slow_4" eclass="HBEFA3/PC_G_EU4" CO2="19450.77" CO="440.74" HC="2.48" NOx="9.02" PMx="0.48" fuel="8.36" electricity="0.00" noise="123.03" route="routeleft" type="cfm_slow" waiting="0.00" lane="left_0" pos="3.89" speed="4.46" angle="177.53" x="-1.16" y="55.67"/>
    </timestep>
    <timestep time="0.40">
        <vehicle id="cfm_slow_0" eclass="HBEFA3/PC_G_EU4" CO2="25128.71" CO="537.84" HC="3.07" NOx="11.66" PMx="0.63" fuel="10.80" electricity="0.00" noise="123.64" route="routebottom" type="cfm_slow" waiting="0.00" lane="bottom_0" pos="2.49" speed="5.94" angle="90.02" x="68.78" y="-1.45"/>
        <vehicle id="cfm_slow_1" eclass="HBEFA3/PC_G_EU4" CO2="25128.71" CO="537.84" HC="3.07" NOx="11.66" PMx="0.63" fuel="10.80" electricity="0.00" noise="123.64" route="routebottom" type="cfm_slow" waiting="0.00" lane="bottom_0" pos="40.49" speed="5.94" angle="21.65" x="126.06" y="44.41"/>
        <vehicle id="cfm_slow_2" eclass="HBEFA3/PC_G_EU4" CO2="25128.71" CO="537.84" HC="3.07" NOx="11.66" PMx="0.63" fuel="10.80" electricity="0.00" noise="123.64" route="routeright" type="cfm_slow" waiting="0.00" lane="right_0" pos="28.49" speed="5.94" angle="313.17" x="104.51" y="114.60"/>
        <vehicle id="cfm_slow_3" eclass="HBEFA3/PC_G_EU4" CO2="25128.71" CO="537.84" HC="3.07" NOx="11.66" PMx="0.63" fuel="10.80" electricity="0.00" noise="123.64" route="routetop" type="cfm_slow" waiting="0.00" lane="top_0" pos="16.49" speed="5.94" angle="244.83" x="31.32" y="120.39"/>
        <vehicle id="cfm_slow_4" eclass="HBEFA3/PC_G_EU4" CO2="25128.71" CO="537.84" HC="3.07" NOx="11.66" PMx="0.63" fuel="10.80" electricity="0.00" noise="123.64" route="routeleft" type="cfm_slow" waiting="0.00" lane="left_0" pos="4.49" speed="5.94" angle="176.45" x="-0.99" y="54.47"/>
    </timestep>
    <timestep time="0.50">
        <vehicle id="cfm_slow_0" eclass="HBEFA3/PC_G_EU4" CO2="30841.28" CO="637.49" HC="3.66" NOx="14.32" PMx="0.77" fuel="13.26" electricity="0.00" noise="124.27" route="routebottom" type="cfm_slow" waiting="0.00" lane="bottom_0" pos="3.23" speed="7.43" angle="88.70" x="70.30" y="-1.30"/>
        <vehicle id="cfm_slow_1" eclass="HBEFA3/PC_G_EU4" CO2="30841.28" CO="637.49" HC="3.66" NOx="14.32" PMx="0.77" fuel="13.26" electricity="0.00" noise="124.27" route="routebottom" type="cfm_slow" waiting="0.00" lane="bottom_0" pos="41.23" speed="7.43" angle="20.33" x="126.50" y="45.87"/>
        <vehicle id="cfm_slow_2" eclass="HBEFA3/PC_G_EU4" CO2="30841.28" CO="637.49" HC="3.66" NOx="14.32" PMx="0.77" fuel="13.26" electricity="0.00" noise="124.27" route="routeright" type="cfm_slow" waiting="0.00" lane="right_0" pos="29.23" speed="7.43" angle="311.82" x="103.32" y="115.54"/>
        <vehicle id="cfm_slow_3" eclass="HBEFA3/PC_G_EU4" CO2="30841.28" CO="637.49" HC="3.66" NOx="14.32" PMx="0.77" fuel="13.26" electricity="0.00" noise="124.27" route="routetop" type="cfm_slow" waiting="0.00" lane="top_0" pos="17.23" speed="7.43" angle="243.52" x="30.01" y="119.62"/>
        <vehicle id="cfm_slow_4" eclass="HBEFA3/PC_G_EU4" CO2="30841.28" CO="637.49" HC="3.66" NOx="14.32" PMx="0.77" fuel="13.26" electricity="0.00" noise="124.27" route="routeleft" type="cfm_slow" waiting="0.00" lane="left_0" pos="5.23" speed="7.43" angle="175.11" x="-0.77" y="52.96"/>
    </timestep>
    <timestep time="0.60">
        <vehicle id="cfm_slow_0" eclass="HBEFA3/PC_G_EU4" CO2="36588.47" CO="739.70" HC="4.27" NOx="16.99" PMx="0.92" fuel="15.73" electricity="0.00" noise="124.91" route="routebottom" type="cfm_slow" waiting="0.00" lane="bottom_0" pos="4.12" speed="8.91" angle="87.12" x="72.11" y="-1.10"/>
        <vehicle id="cfm_slow_1" eclass="HBEFA3/PC_G_EU4" CO2="36588.47" CO="739.70" HC="4.27" NOx="16.99" PMx="0.92" fuel="15.73" electricity="0.00" noise="124.91" route="routebottom" type="cfm_slow" waiting="0.00" lane="bottom_0" pos="42.12" speed="8.91" angle="18.66" x="126.97" y="47.64"/>
        <vehicle id="cfm_slow_2" eclass="HBEFA3/PC_G_EU4" CO2="36588.47" CO="739.70" HC="4.27" NOx="16.99" PMx="0.92" fuel="15.73" electricity="0.00" noise="124.91" route="routeright" type="cfm_slow" waiting="0.00" lane="right_0" pos="30.12" speed="8.91" angle="310.25" x="101.85" y="116.62"/>
        <vehicle id="cfm_slow_3" eclass="HBEFA3/PC_G_EU4" CO2="36588.47" CO="739.70" HC="4.27" NOx="16.99" PMx="0.92" fuel="15.73" electricity="0.00" noise="124.91" route="routetop" type="cfm_slow" waiting="0.00" lane="top_0" pos="18.12" speed="8.91" angle="241.93" x="28.45" y="118.67"/>
        <vehicle id="cfm_slow_4" eclass="HBEFA3/PC_G_EU4" CO2="36588.47" CO="739.70" HC="4.27" NOx="16.99" PMx="0.92" fuel="15.73" electricity="0.00" noise="124.91" route="routeleft" type="cfm_slow" waiting="0.00" lane="left_0" pos="6.12" speed="8.91" angle="173.43" x="-0.43" y="51.16"/>
    </timestep>
    <timestep time="0.70">
        <vehicle id="cfm_slow_0" eclass="HBEFA3/PC_G_EU4" CO2="42370.30" CO="844.47" HC="4.89" NOx="19.68" PMx="1.06" fuel="18.21" electricity="0.00" noise="125.56" route="routebottom" type="cfm_slow" waiting="0.00" lane="bottom_0" pos="5.16" speed="10.40" angle="85.25" x="74.22" y="-0.79"/>
        <vehicle id="cfm_slow_1" eclass="HBEFA3/PC_G_EU4" CO2="42370.30" CO="844.47" HC="4.89" NOx="19.68" PMx="1.06" fuel="18.21" electricity="0.00" noise="125.56" route="routebottom" type="cfm_slow" waiting="0.00" lane="bottom_0" pos="43.16" speed="10.40" angle="16.88" x="127.46" y="49.71"/>
        <vehicle id="cfm_slow_2" eclass="HBEFA3/PC_G_EU4" CO2="42370.30" CO="844.47" HC="4.89" NOx="19.68" PMx="1.06" fuel="18.21" electricity="0.00" noise="125.56" route="routeright" type="cfm_slow" waiting="0.00" lane="right_0" pos="31.16" speed="10.40" angle="308.41" x="100.10" y="117.85"/>
        <vehicle id="cfm_slow_3" eclass="HBEFA3/PC_G_EU4" CO2="42370.30" CO="844.47" HC="4.89" NOx="19.68" PMx="1.06" fuel="18.21" electricity="0.00" noise="125.56" route="routetop" type="cfm_slow" waiting="0.00" lane="top_0" pos="19.16" speed="10.40" angle="239.98" x="26.68" y="117.49"/>
        <vehicle id="cfm_slow_4" eclass="HBEFA3/PC_G_EU4" CO2="42370.30" CO="844.47" HC="4.89" NOx="19.68" PMx="1.06" fuel="18.21" electricity="0.00" noise="125.56" route="routeleft" type="cfm_slow" waiting="0.00" lane="left_0" pos="7.16" speed="10.40" angle="171.57" x="0.01" y="49.08"/>
    </timestep>
    <timestep time="0.80">
        <vehicle id="cfm_slow_0" eclass="HBEFA3/PC_G_EU4" CO2="48186.76" CO="951.79" HC="5.52" NOx="22.39" PMx="1.21" fuel="20.71" electricity="0.00" noise="126.22" route="routebottom" type="cfm_slow" waiting="0.00" lane="bottom_0" pos="6.35" speed="11.88" angle="83.04" x="76.62" y="-0.35"/>
        <vehicle id="cfm_slow_1" eclass="HBEFA3/PC_G_EU4" CO2="48186.76" CO="951.79" HC="5.52" NOx="22.39" PMx="1.21" fuel="20.71" electricity="0.00" noise="126.22" route="routebottom" type="cfm_slow" waiting="0.00" lane="bottom_0" pos="44.35" speed="11.88" angle="14.70" x="127.93" y="52.10"/>
        <vehicle id="cfm_slow_2" eclass="HBEFA3/PC_G_EU4" CO2="48186.76" CO="951.79" HC="5.52" NOx="22.39" PMx="1.21" fuel="20.71" electricity="0.00" noise="126.22" route="routeright" type="cfm_slow" waiting="0.00" lane="right_0" pos="32.35" speed="11.88" angle="306.31" x="98.06" y="119.18"/>
        <vehicle id="cfm_slow_3" eclass="HBEFA3/PC_G_EU4" CO2="48186.76" CO="951.79" HC="5.52" NOx="22.39" PMx="1.21" fuel="20.71" electricity="0.00" noise="126.22" route="routetop" type="cfm_slow" waiting="0.00" lane="top_0" pos="20.35" speed="11.88" angle="237.80" x="24.70" y="116.07"/>
        <vehicle id="cfm_slow_4" eclass="HBEFA3/PC_G_EU4" CO2="48186.76" CO="951.79" HC="5.52" NOx="22.39" PMx="1.21" fuel="20.71" electricity="0.00" noise="126.22" route="routeleft" type="cfm_slow" waiting="0.00" lane="left_0" pos="8.35" speed="11.88" angle="169.42" x="0.60" y="46.72"/>
    </timestep>
    <timestep time="0.90">
        <vehicle id="cfm_slow_0" eclass="HBEFA3/PC_G_EU4" CO2="54037.84" CO="1061.67" HC="6.17" NOx="25.11" PMx="1.36" fuel="23.23" electricity="0.00" noise="126.89" route="routebottom" type="cfm_slow" waiting="0.00" lane="bottom_0" pos="7.68" speed="13.37" angle="80.67" x="79.29" y="0.25"/>
        <vehicle id="cfm_slow_1" eclass="HBEFA3/PC_G_EU4" CO2="54037.84" CO="1061.67" HC="6.17" NOx="25.11" PMx="1.36" fuel="23.23" electricity="0.00" noise="126.89" route="routebottom" type="cfm_slow" waiting="0.00" lane="bottom_0" pos="45.68" speed="13.37" angle="12.26" x="128.36" y="54.81"/>
        <vehicle id="cfm_slow_2" eclass="HBEFA3/PC_G_EU4" CO2="54037.84" CO="1061.67" HC="6.17" NOx="25.11" PMx="1.36" fuel="23.23" electricity="0.00" noise="126.89" route="routeright" type="cfm_slow" waiting="0.00" lane="right_0" pos="33.68" speed="13.37" angle="303.92" x="95.70" y="120.56"/>
        <vehicle id="cfm_slow_3" eclass="HBEFA3/PC_G_EU4" CO2="54037.84" CO="1061.67" HC="6.17" NOx="25.11" PMx="1.36" fuel="23.23" electricity="0.00" noise="126.89" route="routetop" type="cfm_slow" waiting="0.00" lane="top_0" pos="21.68" speed="13.37" angle="235.44" x="22.53" y="114.39"/>
        <vehicle id="cfm_slow_4" eclass="HBEFA3/PC_G_EU4" CO2="54037.84" CO="1061.67" HC="6.17" NOx="25.11" PMx="1.36" fuel="23.23" electricity="0.00" noise="126.89" route="routeleft" type="cfm_slow" waiting="0.00" lane="left_0" pos="9.68" speed="13.37" angle="167.01" x="1.37" y="44.08"/>
    </timestep>
    <timestep time="1.00">
        <vehicle id="cfm_slow_0" eclass="HBEFA3/PC_G_EU4" CO2="59923.55" CO="1174.10" HC="6.83" NOx="27.85" PMx="1.51" fuel="25.76" electricity="0.00" noise="127.56" route="routebottom" type="cfm_slow" waiting="0.00" lane="bottom_0" pos="9.17" speed="14.85" angle="77.96" x="82.23" y="1.05"/>
        <vehicle id="cfm_slow_1" eclass="HBEFA3/PC_G_EU4" CO2="59923.55" CO="1174.10" HC="6.83" NOx="27.85" PMx="1.51" fuel="25.76" electricity="0.00" noise="127.56" route="routebottom" type="cfm_slow" waiting="0.00" lane="bottom_0" pos="47.17" speed="14.85" angle="9.66" x="128.71" y="57.83"/>
        <vehicle id="cfm_slow_2" eclass="HBEFA3/PC_G_EU4" CO2="59923.55" CO="1174.10" HC="6.83" NOx="27.85" PMx="1.51" fuel="25.76" electricity="0.00" noise="127.56" route="routeright" type="cfm_slow" waiting="0.00" lane="right_0" pos="35.17" speed="14.85" angle="301.24" x="93.01" y="122.00"/>
        <vehicle id="cfm_slow_3" eclass="HBEFA3/PC_G_EU4" CO2="59923.55" CO="1174.10" HC="6.83" NOx="27.85" PMx="1.51" fuel="25.76" electricity="0.00" noise="127.56" route="routetop" type="cfm_slow" waiting="0.00" lane="top_0" pos="23.17" speed="14.85" angle="232.79" x="20.21" y="112.42"/>
        <vehicle id="cfm_slow_4" eclass="HBEFA3/PC_G_EU4" CO2="59923.55" CO="1174.10" HC="6.83" NOx="27.85" PMx="1.51" fuel="25.76" electricity="0.00" noise="127.56" route="routeleft" type="cfm_slow" waiting="0.00" lane="left_0" pos="11.17" speed="14.85" angle="164.33" x="2.35" y="41.20"/>
    </timestep>
    <timestep time="1.10">
        <vehicle id="cfm_slow_0" eclass="HBEFA3/PC_G_EU4" CO2="65843.90" CO="1289.10" HC="7.50" NOx="30.61" PMx="1.67" fuel="28.30" electricity="0.00" noise="128.24" route="routebottom" type="cfm_slow" waiting="0.00" lane="bottom_0" pos="10.80" speed="16.34" angle="75.03" x="85.41" y="2.09"/>
        <vehicle id="cfm_slow_1" eclass="HBEFA3/PC_G_EU4" CO2="65843.90" CO="1289.10" HC="7.50" NOx="30.61" PMx="1.67" fuel="28.30" electricity="0.00" noise="128.24" route="routebottom" type="cfm_slow" waiting="0.00" lane="bottom_0" pos="48.80" speed="16.34" angle="6.67" x="128.92" y="61.17"/>
        <vehicle id="cfm_slow_2" eclass="HBEFA3/PC_G_EU4" CO2="65843.90" CO="1289.10" HC="7.50" NOx="30.61" PMx="1.67" fuel="28.30" electricity="0.00" noise="128.24" route="routeright" type="cfm_slow" waiting="0.00" lane="right_0" pos="36.80" speed="16.34" angle="298.23" x="89.98" y="123.43"/>
        <vehicle id="cfm_slow_3" eclass="HBEFA3/PC_G_EU4" CO2="65843.90" CO="1289.10" HC="7.50" NOx="30.61" PMx="1.67" fuel="28.30" electricity="0.00" noise="128.24" route="routetop" type="cfm_slow" waiting="0.00" lane="top_0" pos="24.80" speed="16.34" angle="229.87" x="17.78" y="110.12"/>
        <vehicle id="cfm_slow_4" eclass="HBEFA3/PC_G_EU4" CO2="65843.90" CO="1289.10" HC="7.50" NOx="30.61" PMx="1.67" fuel="28.30" electricity="0.00" noise="128.24" route="routeleft" type="cfm_slow" waiting="0.00" lane="left_0" pos="12.80" speed="16.34" angle="161.49" x="3.57" y="38.08"/>
    </timestep>
    <timestep time="1.20">
        <vehicle id="cfm_slow_0" eclass="HBEFA3/PC_G_EU4" CO2="71798.87" CO="1406.64" HC="8.18" NOx="33.38" PMx="1.82" fuel="30.86" electricity="0.00" noise="128.93" route="routebottom" type="cfm_slow" waiting="0.00" lane="bottom_0" pos="12.58" speed="17.82" angle="71.83" x="88.83" y="3.40"/>
        <vehicle id="cfm_slow_1" eclass="HBEFA3/PC_G_EU4" CO2="71798.87" CO="1406.64" HC="8.18" NOx="33.38" PMx="1.82" fuel="30.86" electricity="0.00" noise="128.93" route="routebottom" type="cfm_slow" waiting="0.00" lane="right_0" pos="0.58" speed="17.82" angle="3.43" x="128.95" y="64.89"/>
        <vehicle id="cfm_slow_2" eclass="HBEFA3/PC_G_EU4" CO2="71798.87" CO="1406.64" HC="8.18" NOx="33.38" PMx="1.82" fuel="30.86" electricity="0.00" noise="128.93" route="routeright" type="cfm_slow" waiting="0.00" lane="right_0" pos="38.58" speed="17.82" angle="295.05" x="86.60" y="124.80"/>
        <vehicle id="cfm_slow_3" eclass="HBEFA3/PC_G_EU4" CO2="71798.87" CO="1406.64" HC="8.18" NOx="33.38" PMx="1.82" fuel="30.86" electricity="0.00" noise="128.93" route="routetop" type="cfm_slow" waiting="0.00" lane="top_0" pos="26.58" speed="17.82" angle="226.67" x="15.25" y="107.48"/>
        <vehicle id="cfm_slow_4" eclass="HBEFA3/PC_G_EU4" CO2="71798.87" CO="1406.64" HC="8.18" NOx="33.38" PMx="1.82" fuel="30.86" electricity="0.00" noise="128.93" route="routeleft" type="cfm_slow" waiting="0.00" lane="left_0" pos="14.58" speed="17.82" angle="158.27" x="5.10" y="34.76"/>
    </timestep>
    <timestep time="1.30">
        <vehicle id="cfm_slow_0" eclass="HBEFA3/PC_G_EU4" CO2="77788.47" CO="1526.75" HC="8.88" NOx="36.17" PMx="1.98" fuel="33.44" electricity="0.00" noise="129.62" route="routebottom" type="cfm_slow" waiting="0.00" lane="bottom_0" pos="14.51" speed="19.31" angle="68.39" x="92.43" y="5.03"/>
        <vehicle id="cfm_slow_1" eclass="HBEFA3/PC_G_EU4" CO2="77788.47" CO="1526.75" HC="8.88" NOx="36.17" PMx="1.98" fuel="33.44" electricity="0.00" noise="129.62" route="routebottom" type="cfm_slow" waiting="0.00" lane="right_0" pos="2.51" speed="19.31" angle="359.98" x="128.77" y="68.84"/>
        <vehicle id="cfm_slow_2" eclass="HBEFA3/PC_G_EU4" CO2="77788.47" CO="1526.75" HC="8.88" NOx="36.17" PMx="1.98" fuel="33.44" electricity="0.00" noise="129.62" route="routeright" type="cfm_slow" waiting="0.00" lane="right_0" pos="40.51" speed="19.31" angle="291.60" x="82.85" y="126.08"/>
        <vehicle id="cfm_slow_3" eclass="HBEFA3/PC_G_EU4" CO2="77788.47" CO="1526.75" HC="8.88" NOx="36.17" PMx="1.98" fuel="33.44" electricity="0.00" noise="129.62" route="routetop" type="cfm_slow" waiting="0.00" lane="top_0" pos="28.51" speed="19.31" angle="223.16" x="12.68" y="104.47"/>
        <vehicle id="cfm_slow_4" eclass="HBEFA3/PC_G_EU4" CO2="77788.47" CO="1526.75" HC="8.88" NOx="36.17" PMx="1.98" fuel="33.44" electricity="0.00" noise="129.62" route="routeleft" type="cfm_slow" waiting="0.00" lane="left_0" pos="16.51" speed="19.31" angle="154.77" x="6.96" y="31.27"/>
    </timestep>
    <timestep time="1.40">
        <vehicle id="cfm_slow_0" eclass="HBEFA3/PC_G_EU4" CO2="83812.70" CO="1649.41" HC="9.59" NOx="38.98" PMx="2.14" fuel="36.03" electricity="0.00" noise="130.32" route="routebottom" type="cfm_slow" waiting="0.00" lane="bottom_0" pos="16.59" speed="20.79" angle="64.66" x="96.19" y="7.03"/>
        <vehicle id="cfm_slow_1" eclass="HBEFA3/PC_G_EU4" CO2="83812.70" CO="1649.41" HC="9.59" NOx="38.98" PMx="2.14" fuel="36.03" electricity="0.00" noise="130.32" route="routebottom" type="cfm_slow" waiting="0.00" lane="right_0" pos="4.59" speed="20.79" angle="356.25" x="128.28" y="73.08"/>
        <vehicle id="cfm_slow_2" eclass="HBEFA3/PC_G_EU4" CO2="83812.70" CO="1649.41" HC="9.59" NOx="38.98" PMx="2.14" fuel="36.03" electricity="0.00" noise="130.32" route="routeright" type="cfm_slow" waiting="0.00" lane="right_0" pos="42.59" speed="20.79" angle="287.86" x="78.74" y="127.20"/>
        <vehicle id="cfm_slow_3" eclass="HBEFA3/PC_G_EU4" CO2="83812.70" CO="1649.41" HC="9.59" NOx="38.98" PMx="2.14" fuel="36.03" electricity="0.00" noise="130.32" route="routetop" type="cfm_slow" waiting="0.00" lane="top_0" pos="30.59" speed="20.79" angle="219.35" x="10.13" y="101.05"/>
        <vehicle id="cfm_slow_4" eclass="HBEFA3/PC_G_EU4" CO2="83812.70" CO="1649.41" HC="9.59" NOx="38.98" PMx="2.14" fuel="36.03" electricity="0.00" noise="130.32" route="routeleft" type="cfm_slow" waiting="0.00" lane="left_0" pos="18.59" speed="20.79" angle="150.98" x="9.20" y="27.65"/>
    </timestep>
    <timestep time="1.50">
        <vehicle id="cfm_slow_0" eclass="HBEFA3/PC_G_EU4" CO2="89871.55" CO="1774.62" HC="10.31" NOx="41.81" PMx="2.30" fuel="38.63" electricity="0.00" noise="131.02" route="routebottom" type="cfm_slow" waiting="0.00" lane="bottom_0" pos="18.82" speed="22.28" angle="60.54" x="100.06" y="9.46"/>
        <vehicle id="cfm_slow_1" eclass="HBEFA3/PC_G_EU4" CO2="89871.55" CO="1774.62" HC="10.31" NOx="41.81" PMx="2.30" fuel="38.63" electricity="0.00" noise="131.02" route="routebottom" type="cfm_slow" waiting="0.00" lane="right_0" pos="6.82" speed="22.28" angle="352.20" x="127.47" y="77.57"/>
        <vehicle id="cfm_slow_2" eclass="HBEFA3/PC_G_EU4" CO2="89871.55" CO="1774.62" HC="10.31" NOx="41.81" PMx="2.30" fuel="38.63" electricity="0.00" noise="131.02" route="routeright" type="cfm_slow" waiting="0.00" lane="right_0" pos="44.82" speed="22.28" angle="283.80" x="74.26" y="128.11"/>
        <vehicle id="cfm_slow_3" eclass="HBEFA3/PC_G_EU4" CO2="89871.55" CO="1774.62" HC="10.31" NOx="41.81" PMx="2.30" fuel="38.63" electricity="0.00" noise="131.02" route="routetop" type="cfm_slow" waiting="0.00" lane="top_0" pos="32.82" speed="22.28" angle="215.44" x="7.65" y="97.22"/>
        <vehicle id="cfm_slow_4" eclass="HBEFA3/PC_G_EU4" CO2="89871.55" CO="1774.62" HC="10.31" NOx="41.81" PMx="2.30" fuel="38.63" electricity="0.00" noise="131.02" route="routeleft" type="cfm_slow" waiting="0.00" lane="left_0" pos="20.82" speed="22.28" angle="146.99" x="11.85" y="23.93"/>
    </timestep>
    <timestep time="1.60">
        <vehicle id="cfm_slow_0" eclass="HBEFA3/PC_G_EU4" CO2="95965.04" CO="1902.40" HC="11.05" NOx="44.65" PMx="2.46" fuel="41.25" electricity="0.00" noise="131.72" route="routebottom" type="cfm_slow" waiting="0.00" lane="bottom_0" pos="21.20" speed="23.76" angle="56.29" x="104.00" y="12.32"/>
        <vehicle id="cfm_slow_1" eclass="HBEFA3/PC_G_EU4" CO2="95965.04" CO="1902.40" HC="11.05" NOx="44.65" PMx="2.46" fuel="41.25" electricity="0.00" noise="131.72" route="routebottom" type="cfm_slow" waiting="0.00" lane="right_0" pos="9.20" speed="23.76" angle="347.96" x="126.26" y="82.29"/>
        <vehicle id="cfm_slow_2" eclass="HBEFA3/PC_G_EU4" CO2="95965.04" CO="1902.40" HC="11.05" NOx="44.65" PMx="2.46" fuel="41.25" electricity="0.00" noise="131.72" route="routeright" type="cfm_slow" waiting="0.00" lane="right_0" pos="47.20" speed="23.76" angle="279.59" x="69.43" y="128.72"/>
        <vehicle id="cfm_slow_3" eclass="HBEFA3/PC_G_EU4" CO2="95965.04" CO="1902.40" HC="11.05" NOx="44.65" PMx="2.46" fuel="41.25" electricity="0.00" noise="131.72" route="routetop" type="cfm_slow" waiting="0.00" lane="top_0" pos="35.20" speed="23.76" angle="211.21" x="5.30" y="92.96"/>
        <vehicle id="cfm_slow_4" eclass="HBEFA3/PC_G_EU4" CO2="95965.04" CO="1902.40" HC="11.05" NOx="44.65" PMx="2.46" fuel="41.25" electricity="0.00" noise="131.72" route="routeleft" type="cfm_slow" waiting="0.00" lane="left_0" pos="23.20" speed="23.76" angle="142.74" x="14.95" y="20.17"/>
    </timestep>
    <timestep time="1.70">
        <vehicle id="cfm_slow_0" eclass="HBEFA3/PC_G_EU4" CO2="102093.16" CO="2032.72" HC="11.79" NOx="47.51" PMx="2.62" fuel="43.88" electricity="0.00" noise="132.42" route="routebottom" type="cfm_slow" waiting="0.00" lane="bottom_0" pos="23.72" speed="25.25" angle="51.83" x="107.95" y="15.67"/>
        <vehicle id="cfm_slow_1" eclass="HBEFA3/PC_G_EU4" CO2="102093.16" CO="2032.72" HC="11.79" NOx="47.51" PMx="2.62" fuel="43.88" electricity="0.00" noise="132.42" route="routebottom" type="cfm_slow" waiting="0.00" lane="right_0" pos="11.72" speed="25.25" angle="343.34" x="124.58" y="87.18"/>
        <vehicle id="cfm_slow_2" eclass="HBEFA3/PC_G_EU4" CO2="102093.16" CO="2032.72" HC="11.79" NOx="47.51" PMx="2.62" fuel="43.88" electricity="0.00" noise="132.42" route="routeright" type="cfm_slow" waiting="0.00" lane="right_0" pos="49.72" speed="25.25" angle="274.97" x="64.26" y="128.96"/>
        <vehicle id="cfm_slow_3" eclass="HBEFA3/PC_G_EU4" CO2="102093.16" CO="2032.72" HC="11.79" NOx="47.51" PMx="2.62" fuel="43.88" electricity="0.00" noise="132.42" route="routetop" type="cfm_slow" waiting="0.00" lane="top_0" pos="37.72" speed="25.25" angle="206.60" x="3.16" y="88.24"/>
        <vehicle id="cfm_slow_4" eclass="HBEFA3/PC_G_EU4" CO2="102093.16" CO="2032.72" HC="11.79" NOx="47.51" PMx="2.62" fuel="43.88" electricity="0.00" noise="132.42" route="routeleft" type="cfm_slow" waiting="0.00" lane="left_0" pos="25.72" speed="25.25" angle="138.23" x="18.54" y="16.45"/>
    </timestep>
    <timestep time="1.80">
        <vehicle id="cfm_slow_0" eclass="HBEFA3/PC_G_EU4" CO2="108255.90" CO="2165.61" HC="12.55" NOx="50.38" PMx="2.79" fuel="46.53" electricity="0.00" noise="133.13" route="routebottom" type="cfm_slow" waiting="0.00" lane="bottom_0" pos="26.40" speed="26.73" angle="47.00" x="111.81" y="19.56"/>
        <vehicle id="cfm_slow_1" eclass="HBEFA3/PC_G_EU4" CO2="108255.90" CO="2165.61" HC="12.55" NOx="50.38" PMx="2.79" fuel="46.53" electricity="0.00" noise="133.13" route="routebottom" type="cfm_slow" waiting="0.00" lane="right_0" pos="14.40" speed="26.73" angle="338.56" x="122.39" y="92.21"/>
        <vehicle id="cfm_slow_2" eclass="HBEFA3/PC_G_EU4" CO2="108255.90" CO="2165.61" HC="12.55" NOx="50.38" PMx="2.79" fuel="46.53" electricity="0.00" noise="133.13" route="routetop" type="cfm_slow" waiting="0.00" lane="top_0" pos="2.40" speed="26.73" angle="270.16" x="58.72" y="128.79"/>
        <vehicle id="cfm_slow_3" eclass="HBEFA3/PC_G_EU4" CO2="108255.90" CO="2165.61" HC="12.55" NOx="50.38" PMx="2.79" fuel="46.53" electricity="0.00" noise="133.13" route="routetop" type="cfm_slow" waiting="0.00" lane="top_0" pos="40.40" speed="26.73" angle="201.77" x="1.32" y="83.08"/>
        <vehicle id="cfm_slow_4" eclass="HBEFA3/PC_G_EU4" CO2="108255.90" CO="2165.61" HC="12.55" NOx="50.38" PMx="2.79" fuel="46.53" electricity="0.00" noise="133.13" route="routeleft" type="cfm_slow" waiting="0.00" lane="left_0" pos="28.40" speed="26.73" angle="133.41" x="22.66" y="12.83"/>
    </timestep>
    <timestep time="1.90">