<?xml version="1.0" encoding="UTF-8"?>

<!-- generated on Wed Feb  1 12:52:32 2017 by SUMO gui Version 0.27.1
<?xml version="1.0" encoding="UTF-8"?>

<configuration xmlns:xsi="http://www.w3.org/2001/XMLSchema-instance" xsi:noNamespaceSchemaLocation="http://sumo.dlr.de/xsd/sumo-gui.exeConfiguration.xsd">

    <input>
        <net-file value="debug/cfg/test-exp-200m1l.net.xml"/>
        <route-files value="debug/cfg/test-exp-200m1l.rou.xml"/>
        <additional-files value="debug/cfg/test-exp-200m1l.add.xml"/>
    </input>

    <output>
        <netstate-dump value="debug/cfg/data/test-exp-200m1l.netstate.xml"/>
        <emission-output value="debug/cfg/data/test-exp-200m1l.emission.xml"/>
        <amitran-output value="debug/cfg/data/test-exp-200m1l.amitran.xml"/>
        <lanechange-output value="debug/cfg/data/test-exp-200m1l.lanechange.xml"/>
    </output>

    <time>
        <begin value="0"/>
        <end value="3000"/>
        <step-length value="0.1"/>
    </time>

    <traci_server>
        <remote-port value="8873"/>
    </traci_server>

    <gui_only>
        <gui-settings-file value="debug/cfg/test-exp-200m1l.gui.cfg"/>
    </gui_only>

</configuration>
-->

<emission-export xmlns:xsi="http://www.w3.org/2001/XMLSchema-instance" xsi:noNamespaceSchemaLocation="http://sumo.dlr.de/xsd/emission_file.xsd">
    <timestep time="0.00">
        <vehicle id="rlbottom.0" eclass="HBEFA2/P_7_7" CO2="601.69" CO="6.37" HC="0.35" NOx="0.84" PMx="0.02" fuel="0.24" electricity="0.00" noise="55.94" route="routebottom" type="rl" waiting="0.00" lane="bottom_0" pos="0.00" speed="0.00" angle="94.49" x="63.69" y="-1.65"/>
        <vehicle id="rlleft.0" eclass="HBEFA2/P_7_7" CO2="601.69" CO="6.37" HC="0.35" NOx="0.84" PMx="0.02" fuel="0.24" electricity="0.00" noise="55.94" route="routeleft" type="rl" waiting="0.00" lane="left_0" pos="0.00" speed="0.00" angle="184.49" x="-1.65" y="63.63"/>
        <vehicle id="rlright.0" eclass="HBEFA2/P_7_7" CO2="601.69" CO="6.37" HC="0.35" NOx="0.84" PMx="0.02" fuel="0.24" electricity="0.00" noise="55.94" route="routeright" type="rl" waiting="0.00" lane="right_0" pos="0.00" speed="0.00" angle="4.49" x="128.97" y="63.69"/>
        <vehicle id="rltop.0" eclass="HBEFA2/P_7_7" CO2="601.69" CO="6.37" HC="0.35" NOx="0.84" PMx="0.02" fuel="0.24" electricity="0.00" noise="55.94" route="routetop" type="rl" waiting="0.00" lane="top_0" pos="0.00" speed="0.00" angle="274.49" x="63.63" y="128.97"/>
    </timestep>
    <timestep time="0.10">
        <vehicle id="rlbottom.0" eclass="HBEFA2/P_7_7" CO2="0.00" CO="0.00" HC="0.00" NOx="0.00" PMx="0.00" fuel="0.00" electricity="0.00" noise="1155.95" route="routebottom" type="rl" waiting="0.00" lane="bottom_0" pos="2.48" speed="24.75" angle="90.03" x="68.76" y="-1.45"/>
        <vehicle id="rlleft.0" eclass="HBEFA2/P_7_7" CO2="0.00" CO="0.00" HC="0.00" NOx="0.00" PMx="0.00" fuel="0.00" electricity="0.00" noise="1155.95" route="routeleft" type="rl" waiting="0.00" lane="left_0" pos="2.48" speed="24.75" angle="180.03" x="-1.45" y="58.56"/>
        <vehicle id="rlright.0" eclass="HBEFA2/P_7_7" CO2="0.00" CO="0.00" HC="0.00" NOx="0.00" PMx="0.00" fuel="0.00" electricity="0.00" noise="1155.95" route="routeright" type="rl" waiting="0.00" lane="right_0" pos="2.48" speed="24.75" angle="0.03" x="128.78" y="68.76"/>
        <vehicle id="rltop.0" eclass="HBEFA2/P_7_7" CO2="0.00" CO="0.00" HC="0.00" NOx="0.00" PMx="0.00" fuel="0.00" electricity="0.00" noise="1155.95" route="routetop" type="rl" waiting="0.00" lane="top_0" pos="2.48" speed="24.75" angle="270.03" x="58.56" y="128.78"/>
    </timestep>
    <timestep time="0.20">
        <vehicle id="rlbottom.0" eclass="HBEFA2/P_7_7" CO2="17300.09" CO="351.29" HC="6.24" NOx="41.02" PMx="2.63" fuel="6.90" electricity="0.00" noise="78.34" route="routebottom" type="rl" waiting="0.00" lane="bottom_0" pos="4.98" speed="25.00" angle="85.56" x="73.85" y="-0.85"/>
        <vehicle id="rlleft.0" eclass="HBEFA2/P_7_7" CO2="17300.09" CO="351.29" HC="6.24" NOx="41.02" PMx="2.63" fuel="6.90" electricity="0.00" noise="78.34" route="routeleft" type="rl" waiting="0.00" lane="left_0" pos="4.98" speed="25.00" angle="175.55" x="-0.85" y="53.47"/>
        <vehicle id="rlright.0" eclass="HBEFA2/P_7_7" CO2="17300.09" CO="351.29" HC="6.24" NOx="41.02" PMx="2.63" fuel="6.90" electricity="0.00" noise="78.34" route="routeright" type="rl" waiting="0.00" lane="right_0" pos="4.98" speed="25.00" angle="355.56" x="128.17" y="73.85"/>
        <vehicle id="rltop.0" eclass="HBEFA2/P_7_7" CO2="17300.09" CO="351.29" HC="6.24" NOx="41.02" PMx="2.63" fuel="6.90" electricity="0.00" noise="78.34" route="routetop" type="rl" waiting="0.00" lane="top_0" pos="4.98" speed="25.00" angle="265.55" x="53.47" y="128.17"/>
    </timestep>
    <timestep time="0.30">
        <vehicle id="rlbottom.0" eclass="HBEFA2/P_7_7" CO2="4344.67" CO="49.29" HC="1.02" NOx="8.79" PMx="0.36" fuel="1.73" electricity="0.00" noise="71.42" route="routebottom" type="rl" waiting="0.00" lane="bottom_0" pos="7.48" speed="25.00" angle="80.99" x="78.88" y="0.15"/>
        <vehicle id="rlleft.0" eclass="HBEFA2/P_7_7" CO2="4344.67" CO="49.29" HC="1.02" NOx="8.79" PMx="0.36" fuel="1.73" electricity="0.00" noise="71.42" route="routeleft" type="rl" waiting="0.00" lane="left_0" pos="7.48" speed="25.00" angle="170.98" x="0.16" y="48.45"/>
        <vehicle id="rlright.0" eclass="HBEFA2/P_7_7" CO2="4344.67" CO="49.29" HC="1.02" NOx="8.79" PMx="0.36" fuel="1.73" electricity="0.00" noise="71.42" route="routeright" type="rl" waiting="0.00" lane="right_0" pos="7.48" speed="25.00" angle="350.95" x="127.17" y="78.88"/>
        <vehicle id="rltop.0" eclass="HBEFA2/P_7_7" CO2="4344.67" CO="49.29" HC="1.02" NOx="8.79" PMx="0.36" fuel="1.73" electricity="0.00" noise="71.42" route="routetop" type="rl" waiting="0.00" lane="top_0" pos="7.48" speed="25.00" angle="260.94" x="48.45" y="127.17"/>
    </timestep>
    <timestep time="0.40">
        <vehicle id="rlbottom.0" eclass="HBEFA2/P_7_7" CO2="4274.99" CO="48.06" HC="0.99" NOx="8.65" PMx="0.36" fuel="1.70" electricity="0.00" noise="71.38" route="routebottom" type="rl" waiting="0.00" lane="bottom_0" pos="9.98" speed="25.00" angle="76.49" x="83.81" y="1.54"/>
        <vehicle id="rlleft.0" eclass="HBEFA2/P_7_7" CO2="4274.99" CO="48.06" HC="0.99" NOx="8.65" PMx="0.36" fuel="1.70" electricity="0.00" noise="71.38" route="routeleft" type="rl" waiting="0.00" lane="left_0" pos="9.98" speed="25.00" angle="166.48" x="1.54" y="43.51"/>
        <vehicle id="rlright.0" eclass="HBEFA2/P_7_7" CO2="4274.99" CO="48.06" HC="0.99" NOx="8.65" PMx="0.36" fuel="1.70" electricity="0.00" noise="71.38" route="routeright" type="rl" waiting="0.00" lane="right_0" pos="9.98" speed="25.00" angle="346.54" x="125.79" y="83.81"/>
        <vehicle id="rltop.0" eclass="HBEFA2/P_7_7" CO2="4274.99" CO="48.06" HC="0.99" NOx="8.65" PMx="0.36" fuel="1.70" electricity="0.00" noise="71.38" route="routetop" type="rl" waiting="0.00" lane="top_0" pos="9.98" speed="25.00" angle="256.53" x="43.51" y="125.78"/>
    </timestep>
    <timestep time="0.50">
        <vehicle id="rlbottom.0" eclass="HBEFA2/P_7_7" CO2="4274.31" CO="48.05" HC="0.99" NOx="8.65" PMx="0.36" fuel="1.70" electricity="0.00" noise="71.38" route="routebottom" type="rl" waiting="0.00" lane="bottom_0" pos="12.48" speed="25.00" angle="72.03" x="88.62" y="3.31"/>
        <vehicle id="rlleft.0" eclass="HBEFA2/P_7_7" CO2="4274.31" CO="48.05" HC="0.99" NOx="8.65" PMx="0.36" fuel="1.70" electricity="0.00" noise="71.38" route="routeleft" type="rl" waiting="0.00" lane="left_0" pos="12.48" speed="25.00" angle="162.02" x="3.32" y="38.70"/>
        <vehicle id="rlright.0" eclass="HBEFA2/P_7_7" CO2="4274.31" CO="48.05" HC="0.99" NOx="8.65" PMx="0.36" fuel="1.70" electricity="0.00" noise="71.38" route="routeright" type="rl" waiting="0.00" lane="right_0" pos="12.48" speed="25.00" angle="342.02" x="124.01" y="88.62"/>
        <vehicle id="rltop.0" eclass="HBEFA2/P_7_7" CO2="4274.31" CO="48.05" HC="0.99" NOx="8.65" PMx="0.36" fuel="1.70" electricity="0.00" noise="71.38" route="routetop" type="rl" waiting="0.00" lane="top_0" pos="12.48" speed="25.00" angle="252.01" x="38.71" y="124.00"/>
    </timestep>
    <timestep time="0.60">
        <vehicle id="rlbottom.0" eclass="HBEFA2/P_7_7" CO2="4274.30" CO="48.05" HC="0.99" NOx="8.65" PMx="0.36" fuel="1.70" electricity="0.00" noise="71.38" route="routebottom" type="rl" waiting="0.00" lane="bottom_0" pos="14.98" speed="25.00" angle="67.53" x="93.27" y="5.46"/>
        <vehicle id="rlleft.0" eclass="HBEFA2/P_7_7" CO2="4274.30" CO="48.05" HC="0.99" NOx="8.65" PMx="0.36" fuel="1.70" electricity="0.00" noise="71.38" route="routeleft" type="rl" waiting="0.00" lane="left_0" pos="14.98" speed="25.00" angle="157.55" x="5.46" y="34.05"/>
        <vehicle id="rlright.0" eclass="HBEFA2/P_7_7" CO2="4274.30" CO="48.05" HC="0.99" NOx="8.65" PMx="0.36" fuel="1.70" electricity="0.00" noise="71.38" route="routeright" type="rl" waiting="0.00" lane="right_0" pos="14.98" speed="25.00" angle="337.48" x="121.86" y="93.27"/>
        <vehicle id="rltop.0" eclass="HBEFA2/P_7_7" CO2="4274.30" CO="48.05" HC="0.99" NOx="8.65" PMx="0.36" fuel="1.70" electricity="0.00" noise="71.38" route="routetop" type="rl" waiting="0.00" lane="top_0" pos="14.98" speed="25.00" angle="247.49" x="34.05" y="121.86"/>
    </timestep>
    <timestep time="0.70">
        <vehicle id="rlbottom.0" eclass="HBEFA2/P_7_7" CO2="4274.30" CO="48.05" HC="0.99" NOx="8.65" PMx="0.36" fuel="1.70" electricity="0.00" noise="71.38" route="routebottom" type="rl" waiting="0.00" lane="bottom_0" pos="17.48" speed="25.00" angle="63.02" x="97.74" y="7.96"/>
        <vehicle id="rlleft.0" eclass="HBEFA2/P_7_7" CO2="4274.30" CO="48.05" HC="0.99" NOx="8.65" PMx="0.36" fuel="1.70" electricity="0.00" noise="71.38" route="routeleft" type="rl" waiting="0.00" lane="left_0" pos="17.48" speed="25.00" angle="153.03" x="7.96" y="29.58"/>
        <vehicle id="rlright.0" eclass="HBEFA2/P_7_7" CO2="4274.30" CO="48.05" HC="0.99" NOx="8.65" PMx="0.36" fuel="1.70" electricity="0.00" noise="71.38" route="routeright" type="rl" waiting="0.00" lane="right_0" pos="17.48" speed="25.00" angle="333.05" x="119.36" y="97.75"/>
        <vehicle id="rltop.0" eclass="HBEFA2/P_7_7" CO2="4274.30" CO="48.05" HC="0.99" NOx="8.65" PMx="0.36" fuel="1.70" electricity="0.00" noise="71.38" route="routetop" type="rl" waiting="0.00" lane="top_0" pos="17.48" speed="25.00" angle="243.06" x="29.58" y="119.36"/>
    </timestep>
    <timestep time="0.80">
        <vehicle id="rlbottom.0" eclass="HBEFA2/P_7_7" CO2="4274.30" CO="48.05" HC="0.99" NOx="8.65" PMx="0.36" fuel="1.70" electricity="0.00" noise="71.38" route="routebottom" type="rl" waiting="0.00" lane="bottom_0" pos="19.98" speed="25.00" angle="58.47" x="102.00" y="10.81"/>
        <vehicle id="rlleft.0" eclass="HBEFA2/P_7_7" CO2="4274.30" CO="48.05" HC="0.99" NOx="8.65" PMx="0.36" fuel="1.70" electricity="0.00" noise="71.38" route="routeleft" type="rl" waiting="0.00" lane="left_0" pos="19.98" speed="25.00" angle="148.47" x="10.81" y="25.32"/>
        <vehicle id="rlright.0" eclass="HBEFA2/P_7_7" CO2="4274.30" CO="48.05" HC="0.99" NOx="8.65" PMx="0.36" fuel="1.70" electricity="0.00" noise="71.38" route="routeright" type="rl" waiting="0.00" lane="right_0" pos="19.98" speed="25.00" angle="328.49" x="116.51" y="102.00"/>
        <vehicle id="rltop.0" eclass="HBEFA2/P_7_7" CO2="4274.30" CO="48.05" HC="0.99" NOx="8.65" PMx="0.36" fuel="1.70" electricity="0.00" noise="71.38" route="routetop" type="rl" waiting="0.00" lane="top_0" pos="19.98" speed="25.00" angle="238.49" x="25.32" y="116.51"/>
    </timestep>
    <timestep time="0.90">
        <vehicle id="rlbottom.0" eclass="HBEFA2/P_7_7" CO2="4274.30" CO="48.05" HC="0.99" NOx="8.65" PMx="0.36" fuel="1.70" electricity="0.00" noise="71.38" route="routebottom" type="rl" waiting="0.00" lane="bottom_0" pos="22.48" speed="25.00" angle="54.02" x="106.03" y="13.98"/>
        <vehicle id="rlleft.0" eclass="HBEFA2/P_7_7" CO2="4274.30" CO="48.05" HC="0.99" NOx="8.65" PMx="0.36" fuel="1.70" electricity="0.00" noise="71.38" route="routeleft" type="rl" waiting="0.00" lane="left_0" pos="22.48" speed="25.00" angle="144.01" x="13.98" y="21.29"/>
        <vehicle id="rlright.0" eclass="HBEFA2/P_7_7" CO2="4274.30" CO="48.05" HC="0.99" NOx="8.65" PMx="0.36" fuel="1.70" electricity="0.00" noise="71.38" route="routeright" type="rl" waiting="0.00" lane="right_0" pos="22.48" speed="25.00" angle="324.02" x="113.35" y="106.03"/>
        <vehicle id="rltop.0" eclass="HBEFA2/P_7_7" CO2="4274.30" CO="48.05" HC="0.99" NOx="8.65" PMx="0.36" fuel="1.70" electricity="0.00" noise="71.38" route="routetop" type="rl" waiting="0.00" lane="top_0" pos="22.48" speed="25.00" angle="234.01" x="21.29" y="113.34"/>
    </timestep>
    <timestep time="1.00">
        <vehicle id="rlbottom.0" eclass="HBEFA2/P_7_7" CO2="4274.30" CO="48.05" HC="0.99" NOx="8.65" PMx="0.36" fuel="1.70" electricity="0.00" noise="71.38" route="routebottom" type="rl" waiting="0.00" lane="bottom_0" pos="24.98" speed="25.00" angle="49.58" x="109.80" y="17.45"/>
        <vehicle id="rlleft.0" eclass="HBEFA2/P_7_7" CO2="4274.30" CO="48.05" HC="0.99" NOx="8.65" PMx="0.36" fuel="1.70" electricity="0.00" noise="71.38" route="routeleft" type="rl" waiting="0.00" lane="left_0" pos="24.98" speed="25.00" angle="139.56" x="17.45" y="17.53"/>
        <vehicle id="rlright.0" eclass="HBEFA2/P_7_7" CO2="4274.30" CO="48.05" HC="0.99" NOx="8.65" PMx="0.36" fuel="1.70" electricity="0.00" noise="71.38" route="routeright" type="rl" waiting="0.00" lane="right_0" pos="24.98" speed="25.00" angle="319.58" x="109.87" y="109.80"/>
        <vehicle id="rltop.0" eclass="HBEFA2/P_7_7" CO2="4274.30" CO="48.05" HC="0.99" NOx="8.65" PMx="0.36" fuel="1.70" electricity="0.00" noise="71.38" route="routetop" type="rl" waiting="0.00" lane="top_0" pos="24.98" speed="25.00" angle="229.56" x="17.52" y="109.87"/>
    </timestep>
    <timestep time="1.10">
        <vehicle id="rlbottom.0" eclass="HBEFA2/P_7_7" CO2="4274.30" CO="48.05" HC="0.99" NOx="8.65" PMx="0.36" fuel="1.70" electricity="0.00" noise="71.38" route="routebottom" type="rl" waiting="0.00" lane="bottom_0" pos="27.48" speed="25.00" angle="45.05" x="113.28" y="21.21"/>
        <vehicle id="rlleft.0" eclass="HBEFA2/P_7_7" CO2="4274.30" CO="48.05" HC="0.99" NOx="8.65" PMx="0.36" fuel="1.70" electricity="0.00" noise="71.38" route="routeleft" type="rl" waiting="0.00" lane="left_0" pos="27.48" speed="25.00" angle="135.05" x="21.21" y="14.05"/>
        <vehicle id="rlright.0" eclass="HBEFA2/P_7_7" CO2="4274.30" CO="48.05" HC="0.99" NOx="8.65" PMx="0.36" fuel="1.70" electricity="0.00" noise="71.38" route="routeright" type="rl" waiting="0.00" lane="right_0" pos="27.48" speed="25.00" angle="315.05" x="106.11" y="113.28"/>
        <vehicle id="rltop.0" eclass="HBEFA2/P_7_7" CO2="4274.30" CO="48.05" HC="0.99" NOx="8.65" PMx="0.36" fuel="1.70" electricity="0.00" noise="71.38" route="routetop" type="rl" waiting="0.00" lane="top_0" pos="27.48" speed="25.00" angle="225.04" x="14.04" y="106.11"/>
    </timestep>
    <timestep time="1.20">
        <vehicle id="rlbottom.0" eclass="HBEFA2/P_7_7" CO2="4274.30" CO="48.05" HC="0.99" NOx="8.65" PMx="0.36" fuel="1.70" electricity="0.00" noise="71.38" route="routebottom" type="rl" waiting="0.00" lane="bottom_0" pos="29.98" speed="25.00" angle="40.53" x="116.45" y="25.24"/>
        <vehicle id="rlleft.0" eclass="HBEFA2/P_7_7" CO2="4274.30" CO="48.05" HC="0.99" NOx="8.65" PMx="0.36" fuel="1.70" electricity="0.00" noise="71.38" route="routeleft" type="rl" waiting="0.00" lane="left_0" pos="29.98" speed="25.00" angle="130.54" x="25.24" y="10.87"/>
        <vehicle id="rlright.0" eclass="HBEFA2/P_7_7" CO2="4274.30" CO="48.05" HC="0.99" NOx="8.65" PMx="0.36" fuel="1.70" electricity="0.00" noise="71.38" route="routeright" type="rl" waiting="0.00" lane="right_0" pos="29.98" speed="25.00" angle="310.51" x="102.09" y="116.45"/>
        <vehicle id="rltop.0" eclass="HBEFA2/P_7_7" CO2="4274.30" CO="48.05" HC="0.99" NOx="8.65" PMx="0.36" fuel="1.70" electricity="0.00" noise="71.38" route="routetop" type="rl" waiting="0.00" lane="top_0" pos="29.98" speed="25.00" angle="220.52" x="10.87" y="102.08"/>
    </timestep>
    <timestep time="1.30">
        <vehicle id="rlbottom.0" eclass="HBEFA2/P_7_7" CO2="4274.30" CO="48.05" HC="0.99" NOx="8.65" PMx="0.36" fuel="1.70" electricity="0.00" noise="71.38" route="routebottom" type="rl" waiting="0.00" lane="bottom_0" pos="32.48" speed="25.00" angle="36.09" x="119.31" y="29.49"/>
        <vehicle id="rlleft.0" eclass="HBEFA2/P_7_7" CO2="4274.30" CO="48.05" HC="0.99" NOx="8.65" PMx="0.36" fuel="1.70" electricity="0.00" noise="71.38" route="routeleft" type="rl" waiting="0.00" lane="left_0" pos="32.48" speed="25.00" angle="126.08" x="29.49" y="8.01"/>
        <vehicle id="rlright.0" eclass="HBEFA2/P_7_7" CO2="4274.30" CO="48.05" HC="0.99" NOx="8.65" PMx="0.36" fuel="1.70" electricity="0.00" noise="71.38" route="routeright" type="rl" waiting="0.00" lane="right_0" pos="32.48" speed="25.00" angle="306.08" x="97.83" y="119.31"/>
        <vehicle id="rltop.0" eclass="HBEFA2/P_7_7" CO2="4274.30" CO="48.05" HC="0.99" NOx="8.65" PMx="0.36" fuel="1.70" electricity="0.00" noise="71.38" route="routetop" type="rl" waiting="0.00" lane="top_0" pos="32.48" speed="25.00" angle="216.07" x="8.01" y="97.83"/>
    </timestep>
    <timestep time="1.40">
        <vehicle id="rlbottom.0" eclass="HBEFA2/P_7_7" CO2="4274.30" CO="48.05" HC="0.99" NOx="8.65" PMx="0.36" fuel="1.70" electricity="0.00" noise="71.38" route="routebottom" type="rl" waiting="0.00" lane="bottom_0" pos="34.98" speed="25.00" angle="31.60" x="121.82" y="33.96"/>
        <vehicle id="rlleft.0" eclass="HBEFA2/P_7_7" CO2="4274.30" CO="48.05" HC="0.99" NOx="8.65" PMx="0.36" fuel="1.70" electricity="0.00" noise="71.38" route="routeleft" type="rl" waiting="0.00" lane="left_0" pos="34.98" speed="25.00" angle="121.62" x="33.96" y="5.50"/>
        <vehicle id="rlright.0" eclass="HBEFA2/P_7_7" CO2="4274.30" CO="48.05" HC="0.99" NOx="8.65" PMx="0.36" fuel="1.70" electricity="0.00" noise="71.38" route="routeright" type="rl" waiting="0.00" lane="right_0" pos="34.98" speed="25.00" angle="301.60" x="93.36" y="121.82"/>
        <vehicle id="rltop.0" eclass="HBEFA2/P_7_7" CO2="4274.30" CO="48.05" HC="0.99" NOx="8.65" PMx="0.36" fuel="1.70" electricity="0.00" noise="71.38" route="routetop" type="rl" waiting="0.00" lane="top_0" pos="34.98" speed="25.00" angle="211.62" x="5.50" y="93.36"/>
    </timestep>
    <timestep time="1.50">
        <vehicle id="rlbottom.0" eclass="HBEFA2/P_7_7" CO2="4274.30" CO="48.05" HC="0.99" NOx="8.65" PMx="0.36" fuel="1.70" electricity="0.00" noise="71.38" route="routebottom" type="rl" waiting="0.00" lane="bottom_0" pos="37.48" speed="25.00" angle="27.03" x="123.96" y="38.61"/>
        <vehicle id="rlleft.0" eclass="HBEFA2/P_7_7" CO2="4274.30" CO="48.05" HC="0.99" NOx="8.65" PMx="0.36" fuel="1.70" electricity="0.00" noise="71.38" route="routeleft" type="rl" waiting="0.00" lane="left_0" pos="37.48" speed="25.00" angle="117.06" x="38.61" y="3.36"/>
        <vehicle id="rlright.0" eclass="HBEFA2/P_7_7" CO2="4274.30" CO="48.05" HC="0.99" NOx="8.65" PMx="0.36" fuel="1.70" electricity="0.00" noise="71.38" route="routeright" type="rl" waiting="0.00" lane="right_0" pos="37.48" speed="25.00" angle="297.04" x="88.71" y="123.97"/>
        <vehicle id="rltop.0" eclass="HBEFA2/P_7_7" CO2="4274.30" CO="48.05" HC="0.99" NOx="8.65" PMx="0.36" fuel="1.70" electricity="0.00" noise="71.38" route="routetop" type="rl" waiting="0.00" lane="top_0" pos="37.48" speed="25.00" angle="207.07" x="3.35" y="88.71"/>
    </timestep>
    <timestep time="1.60">
        <vehicle id="rlbottom.0" eclass="HBEFA2/P_7_7" CO2="4274.30" CO="48.05" HC="0.99" NOx="8.65" PMx="0.36" fuel="1.70" electricity="0.00" noise="71.38" route="routebottom" type="rl" waiting="0.00" lane="bottom_0" pos="39.98" speed="25.00" angle="22.60" x="125.75" y="43.41"/>
        <vehicle id="rlleft.0" eclass="HBEFA2/P_7_7" CO2="4274.30" CO="48.05" HC="0.99" NOx="8.65" PMx="0.36" fuel="1.70" electricity="0.00" noise="71.38" route="routeleft" type="rl" waiting="0.00" lane="left_0" pos="39.98" speed="25.00" angle="112.55" x="43.41" y="1.57"/>
        <vehicle id="rlright.0" eclass="HBEFA2/P_7_7" CO2="4274.30" CO="48.05" HC="0.99" NOx="8.65" PMx="0.36" fuel="1.70" electricity="0.00" noise="71.38" route="routeright" type="rl" waiting="0.00" lane="right_0" pos="39.98" speed="25.00" angle="292.61" x="83.91" y="125.76"/>
        <vehicle id="rltop.0" eclass="HBEFA2/P_7_7" CO2="4274.30" CO="48.05" HC="0.99" NOx="8.65" PMx="0.36" fuel="1.70" electricity="0.00" noise="71.38" route="routetop" type="rl" waiting="0.00" lane="top_0" pos="39.98" speed="25.00" angle="202.56" x="1.57" y="83.91"/>
    </timestep>
    <timestep time="1.70">
        <vehicle id="rlbottom.0" eclass="HBEFA2/P_7_7" CO2="4274.30" CO="48.05" HC="0.99" NOx="8.65" PMx="0.36" fuel="1.70" electricity="0.00" noise="71.38" route="routebottom" type="rl" waiting="0.00" lane="bottom_0" pos="42.48" speed="25.00" angle="18.08" x="127.14" y="48.35"/>
        <vehicle id="rlleft.0" eclass="HBEFA2/P_7_7" CO2="4274.30" CO="48.05" HC="0.99" NOx="8.65" PMx="0.36" fuel="1.70" electricity="0.00" noise="71.38" route="routeleft" type="rl" waiting="0.00" lane="left_0" pos="42.48" speed="25.00" angle="108.07" x="48.35" y="0.18"/>
        <vehicle id="rlright.0" eclass="HBEFA2/P_7_7" CO2="4274.30" CO="48.05" HC="0.99" NOx="8.65" PMx="0.36" fuel="1.70" electricity="0.00" noise="71.38" route="routeright" type="rl" waiting="0.00" lane="right_0" pos="42.48" speed="25.00" angle="288.07" x="78.98" y="127.14"/>
        <vehicle id="rltop.0" eclass="HBEFA2/P_7_7" CO2="4274.30" CO="48.05" HC="0.99" NOx="8.65" PMx="0.36" fuel="1.70" electricity="0.00" noise="71.38" route="routetop" type="rl" waiting="0.00" lane="top_0" pos="42.48" speed="25.00" angle="198.06" x="0.18" y="78.98"/>
    </timestep>
    <timestep time="1.80">
        <vehicle id="rlbottom.0" eclass="HBEFA2/P_7_7" CO2="4274.30" CO="48.05" HC="0.99" NOx="8.65" PMx="0.36" fuel="1.70" electricity="0.00" noise="71.38" route="routebottom" type="rl" waiting="0.00" lane="bottom_0" pos="44.98" speed="25.00" angle="13.56" x="128.16" y="53.37"/>
        <vehicle id="rlleft.0" eclass="HBEFA2/P_7_7" CO2="4274.30" CO="48.05" HC="0.99" NOx="8.65" PMx="0.36" fuel="1.70" electricity="0.00" noise="71.38" route="routeleft" type="rl" waiting="0.00" lane="left_0" pos="44.98" speed="25.00" angle="103.61" x="53.37" y="-0.84"/>
        <vehicle id="rlright.0" eclass="HBEFA2/P_7_7" CO2="4274.30" CO="48.05" HC="0.99" NOx="8.65" PMx="0.36" fuel="1.70" electricity="0.00" noise="71.38" route="routeright" type="rl" waiting="0.00" lane="right_0" pos="44.98" speed="25.00" angle="283.55" x="73.95" y="128.16"/>
        <vehicle id="rltop.0" eclass="HBEFA2/P_7_7" CO2="4274.30" CO="48.05" HC="0.99" NOx="8.65" PMx="0.36" fuel="1.70" electricity="0.00" noise="71.38" route="routetop" type="rl" waiting="0.00" lane="top_0" pos="44.98" speed="25.00" angle="193.61" x="-0.84" y="73.95"/>
    </timestep>
    <timestep time="1.90">
        <vehicle id="rlbottom.0" eclass="HBEFA2/P_7_7" CO2="4274.30" CO="48.05" HC="0.99" NOx="8.65" PMx="0.36" fuel="1.70" electricity="0.00" noise="71.38" route="routebottom" type="rl" waiting="0.00" lane="bottom_0" pos="47.48" speed="25.00" angle="9.16" x="128.77" y="58.46"/>
        <vehicle id="rlleft.0" eclass="HBEFA2/P_7_7" CO2="4274.30" CO="48.05" HC="0.99" NOx="8.65" PMx="0.36" fuel="1.70" electricity="0.00" noise="71.38" route="routeleft" type="rl" waiting="0.00" lane="left_0" pos="47.48" speed="25.00" angle="99.11" x="58.46" y="-1.44"/>
        <vehicle id="rlright.0" eclass="HBEFA2/P_7_7" CO2="4274.30" CO="48.05" HC="0.99" NOx="8.65" PMx="0.36" fuel="1.70" electricity="0.00" noise="71.38" route="routeright" type="rl" waiting="0.00" lane="right_0" pos="47.48" speed="25.00" angle="279.15" x="68.86" y="128.77"/>
        <vehicle id="rltop.0" eclass="HBEFA2/P_7_7" CO2="4274.30" CO="48.05" HC="0.99" NOx="8.65" PMx="0.36" fuel="1.70" electricity="0.00" noise="71.38" route="routetop" type="rl" waiting="0.00" lane="top_0" pos="47.48" speed="25.00" angle="189.10" x="-1.44" y="68.86"/>
    </timestep>
    <timestep time="2.00">
        <vehicle id="rlbottom.0" eclass="HBEFA2/P_7_7" CO2="4274.30" CO="48.05" HC="0.99" NOx="8.65" PMx="0.36" fuel="1.70" electricity="0.00" noise="71.38" route="routebottom" type="rl" waiting="0.00" lane="bottom_0" pos="49.98" speed="25.00" angle="4.56" x="128.97" y="63.58"/>
        <vehicle id="rlleft.0" eclass="HBEFA2/P_7_7" CO2="4274.30" CO="48.05" HC="0.99" NOx="8.65" PMx="0.36" fuel="1.70" electricity="0.00" noise="71.38" route="routeleft" type="rl" waiting="0.00" lane="left_0" pos="49.98" speed="25.00" angle="94.56" x="63.58" y="-1.65"/>
        <vehicle id="rlright.0" eclass="HBEFA2/P_7_7" CO2="4274.30" CO="48.05" HC="0.99" NOx="8.65" PMx="0.36" fuel="1.70" electricity="0.00" noise="71.38" route="routeright" type="rl" waiting="0.00" lane="right_0" pos="49.98" speed="25.00" angle="274.55" x="63.74" y="128.97"/>
        <vehicle id="rltop.0" eclass="HBEFA2/P_7_7" CO2="4274.30" CO="48.05" HC="0.99" NOx="8.65" PMx="0.36" fuel="1.70" electricity="0.00" noise="71.38" route="routetop" type="rl" waiting="0.00" lane="top_0" pos="49.98" speed="25.00" angle="184.55" x="-1.65" y="63.74"/>
    </timestep>
    <timestep time="2.10">
        <vehicle id="rlbottom.0" eclass="HBEFA2/P_7_7" CO2="4274.30" CO="48.05" HC="0.99" NOx="8.65" PMx="0.36" fuel="1.70" electricity="0.00" noise="71.38" route="routebottom" type="rl" waiting="0.00" lane="right_0" pos="2.48" speed="25.00" angle="0.03" x="128.78" y="68.76"/>
        <vehicle id="rlleft.0" eclass="HBEFA2/P_7_7" CO2="4274.30" CO="48.05" HC="0.99" NOx="8.65" PMx="0.36" fuel="1.70" electricity="0.00" noise="71.38" route="routebottom" type="rl" waiting="0.00" lane="bottom_0" pos="2.48" speed="25.00" angle="90.03" x="68.76" y="-1.45"/>
        <vehicle id="rlright.0" eclass="HBEFA2/P_7_7" CO2="4274.30" CO="48.05" HC="0.99" NOx="8.65" PMx="0.36" fuel="1.70" electricity="0.00" noise="71.38" route="routetop" type="rl" waiting="0.00" lane="top_0" pos="2.48" speed="25.00" angle="270.03" x="58.56" y="128.78"/>
        <vehicle id="rltop.0" eclass="HBEFA2/P_7_7" CO2="4274.30" CO="48.05" HC="0.99" NOx="8.65" PMx="0.36" fuel="1.70" electricity="0.00" noise="71.38" route="routetop" type="rl" waiting="0.00" lane="left_0" pos="2.48" speed="25.00" angle="180.03" x="-1.45" y="58.56"/>
    </timestep>
    <timestep time="2.20">
        <vehicle id="rlbottom.0" eclass="HBEFA2/P_7_7" CO2="4274.30" CO="48.05" HC="0.99" NOx="8.65" PMx="0.36" fuel="1.70" electricity="0.00" noise="71.38" route="routebottom" type="rl" waiting="0.00" lane="right_0" pos="4.98" speed="25.00" angle="355.56" x="128.17" y="73.85"/>
        <vehicle id="rlleft.0" eclass="HBEFA2/P_7_7" CO2="4274.30" CO="48.05" HC="0.99" NOx="8.65" PMx="0.36" fuel="1.70" electricity="0.00" noise="71.38" route="routebottom" type="rl" waiting="0.00" lane="bottom_0" pos="4.98" speed="25.00" angle="85.56" x="73.85" y="-0.85"/>
        <vehicle id="rlright.0" eclass="HBEFA2/P_7_7" CO2="4274.30" CO="48.05" HC="0.99" NOx="8.65" PMx="0.36" fuel="1.70" electricity="0.00" noise="71.38" route="routetop" type="rl" waiting="0.00" lane="top_0" pos="4.98" speed="25.00" angle="265.55" x="53.47" y="128.17"/>
        <vehicle id="rltop.0" eclass="HBEFA2/P_7_7" CO2="4274.30" CO="48.05" HC="0.99" NOx="8.65" PMx="0.36" fuel="1.70" electricity="0.00" noise="71.38" route="routetop" type="rl" waiting="0.00" lane="left_0" pos="4.98" speed="25.00" angle="175.55" x="-0.85" y="53.47"/>
    </timestep>
    <timestep time="2.30">
        <vehicle id="rlbottom.0" eclass="HBEFA2/P_7_7" CO2="4274.30" CO="48.05" HC="0.99" NOx="8.65" PMx="0.36" fuel="1.70" electricity="0.00" noise="71.38" route="routebottom" type="rl" waiting="0.00" lane="right_0" pos="7.48" speed="25.00" angle="350.95" x="127.17" y="78.88"/>
        <vehicle id="rlleft.0" eclass="HBEFA2/P_7_7" CO2="4274.30" CO="48.05" HC="0.99" NOx="8.65" PMx="0.36" fuel="1.70" electricity="0.00" noise="71.38" route="routebottom" type="rl" waiting="0.00" lane="bottom_0" pos="7.48" speed="25.00" angle="80.99" x="78.88" y="0.15"/>
        <vehicle id="rlright.0" eclass="HBEFA2/P_7_7" CO2="4274.30" CO="48.05" HC="0.99" NOx="8.65" PMx="0.36" fuel="1.70" electricity="0.00" noise="71.38" route="routetop" type="rl" waiting="0.00" lane="top_0" pos="7.48" speed="25.00" angle="260.94" x="48.45" y="127.17"/>
        <vehicle id="rltop.0" eclass="HBEFA2/P_7_7" CO2="4274.30" CO="48.05" HC="0.99" NOx="8.65" PMx="0.36" fuel="1.70" electricity="0.00" noise="71.38" route="routetop" type="rl" waiting="0.00" lane="left_0" pos="7.48" speed="25.00" angle="170.98" x="0.16" y="48.45"/>
    </timestep>
    <timestep time="2.40">
        <vehicle id="rlbottom.0" eclass="HBEFA2/P_7_7" CO2="4274.30" CO="48.05" HC="0.99" NOx="8.65" PMx="0.36" fuel="1.70" electricity="0.00" noise="71.38" route="routebottom" type="rl" waiting="0.00" lane="right_0" pos="9.98" speed="25.00" angle="346.54" x="125.79" y="83.81"/>
        <vehicle id="rlleft.0" eclass="HBEFA2/P_7_7" CO2="4274.30" CO="48.05" HC="0.99" NOx="8.65" PMx="0.36" fuel="1.70" electricity="0.00" noise="71.38" route="routebottom" type="rl" waiting="0.00" lane="bottom_0" pos="9.98" speed="25.00" angle="76.49" x="83.81" y="1.54"/>
        <vehicle id="rlright.0" eclass="HBEFA2/P_7_7" CO2="4274.30" CO="48.05" HC="0.99" NOx="8.65" PMx="0.36" fuel="1.70" electricity="0.00" noise="71.38" route="routetop" type="rl" waiting="0.00" lane="top_0" pos="9.98" speed="25.00" angle="256.53" x="43.51" y="125.78"/>
        <vehicle id="rltop.0" eclass="HBEFA2/P_7_7" CO2="4274.30" CO="48.05" HC="0.99" NOx="8.65" PMx="0.36" fuel="1.70" electricity="0.00" noise="71.38" route="routetop" type="rl" waiting="0.00" lane="left_0" pos="9.98" speed="25.00" angle="166.48" x="1.54" y="43.51"/>