<?xml version="1.0" encoding="UTF-8"?>

<!-- generated on Mon Feb 27 13:42:47 2017 by SUMO Version 0.29.0
<?xml version="1.0" encoding="UTF-8"?>

<configuration xmlns:xsi="http://www.w3.org/2001/XMLSchema-instance" xsi:noNamespaceSchemaLocation="http://sumo.dlr.de/xsd/sumoConfiguration.xsd">

    <input>
        <net-file value="debug/cfg/tutorial-experiment-200m2l.net.xml"/>
        <route-files value="debug/cfg/tutorial-experiment-200m2l.rou.xml"/>
        <additional-files value="debug/cfg/tutorial-experiment-200m2l.add.xml"/>
    </input>

    <output>
        <netstate-dump value="debug/cfg/data/tutorial-experiment-200m2l.netstate.xml"/>
        <emission-output value="debug/cfg/data/tutorial-experiment-200m2l.emission.xml"/>
        <amitran-output value="debug/cfg/data/tutorial-experiment-200m2l.amitran.xml"/>
        <lanechange-output value="debug/cfg/data/tutorial-experiment-200m2l.lanechange.xml"/>
    </output>

    <time>
        <begin value="0"/>
        <end value="3000"/>
        <step-length value="0.1"/>
    </time>

    <traci_server>
        <remote-port value="8873"/>
    </traci_server>

    <gui_only>
        <gui-settings-file value="debug/cfg/tutorial-experiment-200m2l.gui.cfg"/>
    </gui_only>

</configuration>
-->

<netstate xmlns:xsi="http://www.w3.org/2001/XMLSchema-instance" xsi:noNamespaceSchemaLocation="http://sumo.dlr.de/xsd/netstate_file.xsd">
    <timestep time="0.00">
        <edge id="bottom">
            <lane id="bottom_0">
                <vehicle id="cfm-slow_0" pos="1.00" speed="0.00"/>
                <vehicle id="cfm-slow_1" pos="16.83" speed="0.00"/>
                <vehicle id="cfm-slow_2" pos="32.67" speed="0.00"/>
                <vehicle id="cfm-slow_3" pos="48.50" speed="0.00"/>
            </lane>
            <lane id="bottom_1"/>
        </edge>
        <edge id="left">
            <lane id="left_0">
                <vehicle id="cfm-fast_4" pos="9.33" speed="0.00"/>
                <vehicle id="cfm-fast_5" pos="25.17" speed="0.00"/>
            </lane>
            <lane id="left_1"/>
        </edge>
        <edge id="right">
            <lane id="right_0">
                <vehicle id="cfm-slow_4" pos="14.33" speed="0.00"/>
                <vehicle id="cfm-slow_5" pos="30.17" speed="0.00"/>
                <vehicle id="cfm-fast_0" pos="46.00" speed="0.00"/>
            </lane>
            <lane id="right_1"/>
        </edge>
        <edge id="top">
            <lane id="top_0">
                <vehicle id="cfm-fast_1" pos="11.83" speed="0.00"/>
                <vehicle id="cfm-fast_2" pos="27.67" speed="0.00"/>
                <vehicle id="cfm-fast_3" pos="43.50" speed="0.00"/>
            </lane>
            <lane id="top_1"/>
        </edge>
    </timestep>
    <timestep time="0.10">
        <edge id="bottom">
            <lane id="bottom_0">
                <vehicle id="cfm-slow_0" pos="1.15" speed="1.49"/>
                <vehicle id="cfm-slow_1" pos="16.98" speed="1.49"/>
                <vehicle id="cfm-slow_2" pos="32.82" speed="1.49"/>
                <vehicle id="cfm-slow_3" pos="48.65" speed="1.49"/>
            </lane>
            <lane id="bottom_1"/>
        </edge>
        <edge id="left">
            <lane id="left_0">
                <vehicle id="cfm-fast_4" pos="9.48" speed="1.49"/>
                <vehicle id="cfm-fast_5" pos="25.32" speed="1.49"/>
            </lane>
            <lane id="left_1"/>
        </edge>
        <edge id="right">
            <lane id="right_0">
                <vehicle id="cfm-slow_4" pos="14.48" speed="1.49"/>
                <vehicle id="cfm-slow_5" pos="30.32" speed="1.49"/>
                <vehicle id="cfm-fast_0" pos="46.15" speed="1.49"/>
            </lane>
            <lane id="right_1"/>
        </edge>
        <edge id="top">
            <lane id="top_0">
                <vehicle id="cfm-fast_1" pos="11.98" speed="1.49"/>
                <vehicle id="cfm-fast_2" pos="27.82" speed="1.49"/>
                <vehicle id="cfm-fast_3" pos="43.65" speed="1.49"/>
            </lane>
            <lane id="top_1"/>
        </edge>
    </timestep>
    <timestep time="0.20">
        <edge id="bottom">
            <lane id="bottom_0">
                <vehicle id="cfm-slow_0" pos="1.45" speed="2.97"/>
                <vehicle id="cfm-slow_1" pos="17.28" speed="2.97"/>
                <vehicle id="cfm-slow_2" pos="33.11" speed="2.97"/>
                <vehicle id="cfm-slow_3" pos="48.95" speed="2.97"/>
            </lane>
            <lane id="bottom_1"/>
        </edge>
        <edge id="left">
            <lane id="left_0">
                <vehicle id="cfm-fast_4" pos="9.78" speed="2.97"/>
                <vehicle id="cfm-fast_5" pos="25.61" speed="2.97"/>
            </lane>
            <lane id="left_1"/>
        </edge>
        <edge id="right">
            <lane id="right_0">
                <vehicle id="cfm-slow_4" pos="14.78" speed="2.97"/>
                <vehicle id="cfm-slow_5" pos="30.61" speed="2.97"/>
                <vehicle id="cfm-fast_0" pos="46.45" speed="2.97"/>
            </lane>
            <lane id="right_1"/>
        </edge>
        <edge id="top">
            <lane id="top_0">
                <vehicle id="cfm-fast_1" pos="12.28" speed="2.97"/>
                <vehicle id="cfm-fast_2" pos="28.11" speed="2.97"/>
                <vehicle id="cfm-fast_3" pos="43.95" speed="2.97"/>
            </lane>
            <lane id="top_1"/>
        </edge>
    </timestep>
    <timestep time="0.30">
        <edge id="bottom">
            <lane id="bottom_0">
                <vehicle id="cfm-slow_0" pos="1.89" speed="4.46"/>
                <vehicle id="cfm-slow_1" pos="17.72" speed="4.46"/>
                <vehicle id="cfm-slow_2" pos="33.56" speed="4.46"/>
                <vehicle id="cfm-slow_3" pos="49.39" speed="4.46"/>
            </lane>
            <lane id="bottom_1"/>
        </edge>
        <edge id="left">
            <lane id="left_0">
                <vehicle id="cfm-fast_4" pos="10.22" speed="4.46"/>
                <vehicle id="cfm-fast_5" pos="26.06" speed="4.46"/>
            </lane>
            <lane id="left_1"/>
        </edge>
        <edge id="right">
            <lane id="right_0">
                <vehicle id="cfm-slow_4" pos="15.22" speed="4.46"/>
                <vehicle id="cfm-slow_5" pos="31.06" speed="4.46"/>
                <vehicle id="cfm-fast_0" pos="46.89" speed="4.46"/>
            </lane>
            <lane id="right_1"/>
        </edge>
        <edge id="top">
            <lane id="top_0">
                <vehicle id="cfm-fast_1" pos="12.72" speed="4.46"/>
                <vehicle id="cfm-fast_2" pos="28.56" speed="4.46"/>
                <vehicle id="cfm-fast_3" pos="44.39" speed="4.46"/>
            </lane>
            <lane id="top_1"/>
        </edge>
    </timestep>
    <timestep time="0.40">
        <edge id="bottom">
            <lane id="bottom_0">
                <vehicle id="cfm-slow_0" pos="2.49" speed="5.94"/>
                <vehicle id="cfm-slow_1" pos="18.32" speed="5.94"/>
                <vehicle id="cfm-slow_2" pos="34.15" speed="5.94"/>
                <vehicle id="cfm-slow_3" pos="49.99" speed="5.94"/>
            </lane>
            <lane id="bottom_1"/>
        </edge>
        <edge id="left">
            <lane id="left_0">
                <vehicle id="cfm-fast_4" pos="10.82" speed="5.94"/>
                <vehicle id="cfm-fast_5" pos="26.65" speed="5.94"/>
            </lane>
            <lane id="left_1"/>
        </edge>
        <edge id="right">
            <lane id="right_0">
                <vehicle id="cfm-slow_4" pos="15.82" speed="5.94"/>
                <vehicle id="cfm-slow_5" pos="31.65" speed="5.94"/>
                <vehicle id="cfm-fast_0" pos="47.49" speed="5.94"/>
            </lane>
            <lane id="right_1"/>
        </edge>
        <edge id="top">
            <lane id="top_0">
                <vehicle id="cfm-fast_1" pos="13.32" speed="5.94"/>
                <vehicle id="cfm-fast_2" pos="29.15" speed="5.94"/>
                <vehicle id="cfm-fast_3" pos="44.99" speed="5.94"/>
            </lane>
            <lane id="top_1"/>
        </edge>
    </timestep>
    <timestep time="0.50">
        <edge id="bottom">
            <lane id="bottom_0">
                <vehicle id="cfm-slow_0" pos="3.23" speed="7.42"/>
                <vehicle id="cfm-slow_1" pos="19.06" speed="7.42"/>
                <vehicle id="cfm-slow_2" pos="34.89" speed="7.42"/>
            </lane>
            <lane id="bottom_1"/>
        </edge>
        <edge id="left">
            <lane id="left_0">
                <vehicle id="cfm-fast_4" pos="11.56" speed="7.43"/>
                <vehicle id="cfm-fast_5" pos="27.39" speed="7.43"/>
            </lane>
            <lane id="left_1"/>
        </edge>
        <edge id="right">
            <lane id="right_0">
                <vehicle id="cfm-slow_3" pos="0.73" speed="7.42"/>
                <vehicle id="cfm-slow_4" pos="16.56" speed="7.42"/>
                <vehicle id="cfm-slow_5" pos="32.39" speed="7.42"/>
                <vehicle id="cfm-fast_0" pos="48.23" speed="7.43"/>
            </lane>
            <lane id="right_1"/>
        </edge>
        <edge id="top">
            <lane id="top_0">
                <vehicle id="cfm-fast_1" pos="14.06" speed="7.43"/>
                <vehicle id="cfm-fast_2" pos="29.89" speed="7.43"/>
                <vehicle id="cfm-fast_3" pos="45.73" speed="7.43"/>
            </lane>
            <lane id="top_1"/>
        </edge>
    </timestep>
    <timestep time="0.60">
        <edge id="bottom">
            <lane id="bottom_0">
                <vehicle id="cfm-slow_0" pos="4.10" speed="8.74"/>
                <vehicle id="cfm-slow_1" pos="19.93" speed="8.74"/>
                <vehicle id="cfm-slow_2" pos="35.77" speed="8.74"/>
            </lane>
            <lane id="bottom_1"/>
        </edge>
        <edge id="left">
            <lane id="left_0">
                <vehicle id="cfm-fast_4" pos="12.45" speed="8.91"/>
                <vehicle id="cfm-fast_5" pos="28.29" speed="8.91"/>
            </lane>
            <lane id="left_1"/>
        </edge>
        <edge id="right">
            <lane id="right_0">
                <vehicle id="cfm-slow_3" pos="1.60" speed="8.74"/>
                <vehicle id="cfm-slow_4" pos="17.43" speed="8.74"/>
                <vehicle id="cfm-slow_5" pos="33.27" speed="8.74"/>
                <vehicle id="cfm-fast_0" pos="49.12" speed="8.91"/>
            </lane>
            <lane id="right_1"/>
        </edge>
        <edge id="top">
            <lane id="top_0">
                <vehicle id="cfm-fast_1" pos="14.95" speed="8.91"/>
                <vehicle id="cfm-fast_2" pos="30.79" speed="8.91"/>
                <vehicle id="cfm-fast_3" pos="46.62" speed="8.91"/>
            </lane>
            <lane id="top_1"/>
        </edge>
    </timestep>
    <timestep time="0.70">
        <edge id="bottom">
            <lane id="bottom_0">
                <vehicle id="cfm-slow_0" pos="5.10" speed="9.94"/>
                <vehicle id="cfm-slow_1" pos="20.93" speed="9.94"/>
                <vehicle id="cfm-slow_2" pos="36.76" speed="9.94"/>
            </lane>
            <lane id="bottom_1"/>
        </edge>
        <edge id="left">
            <lane id="left_0">
                <vehicle id="cfm-fast_4" pos="13.49" speed="10.40"/>
                <vehicle id="cfm-fast_5" pos="29.33" speed="10.40"/>
            </lane>
            <lane id="left_1"/>
        </edge>
        <edge id="right">
            <lane id="right_0">
                <vehicle id="cfm-slow_3" pos="2.60" speed="9.94"/>
                <vehicle id="cfm-slow_4" pos="18.43" speed="9.94"/>
                <vehicle id="cfm-slow_5" pos="34.26" speed="9.96"/>
            </lane>
            <lane id="right_1"/>
        </edge>
        <edge id="top">
            <lane id="top_0">
                <vehicle id="cfm-fast_0" pos="0.16" speed="10.40"/>
                <vehicle id="cfm-fast_1" pos="15.99" speed="10.40"/>
                <vehicle id="cfm-fast_2" pos="31.83" speed="10.40"/>
                <vehicle id="cfm-fast_3" pos="47.66" speed="10.40"/>
            </lane>
            <lane id="top_1"/>
        </edge>
    </timestep>
    <timestep time="0.80">
        <edge id="bottom">
            <lane id="bottom_0">
                <vehicle id="cfm-slow_0" pos="6.20" speed="11.02"/>
                <vehicle id="cfm-slow_1" pos="22.03" speed="11.02"/>
                <vehicle id="cfm-slow_2" pos="37.86" speed="11.02"/>
            </lane>
            <lane id="bottom_1"/>
        </edge>
        <edge id="left">
            <lane id="left_0">
                <vehicle id="cfm-fast_4" pos="14.67" speed="11.83"/>
                <vehicle id="cfm-fast_5" pos="30.51" speed="11.88"/>
            </lane>
            <lane id="left_1"/>
        </edge>
        <edge id="right">
            <lane id="right_0">
                <vehicle id="cfm-slow_3" pos="3.70" speed="11.02"/>
                <vehicle id="cfm-slow_4" pos="19.53" speed="11.02"/>
                <vehicle id="cfm-slow_5" pos="35.37" speed="11.09"/>
            </lane>
            <lane id="right_1"/>
        </edge>
        <edge id="top">
            <lane id="top_0">
                <vehicle id="cfm-fast_0" pos="1.34" speed="11.83"/>
                <vehicle id="cfm-fast_1" pos="17.17" speed="11.83"/>
                <vehicle id="cfm-fast_2" pos="33.01" speed="11.83"/>
                <vehicle id="cfm-fast_3" pos="48.84" speed="11.83"/>
            </lane>
            <lane id="top_1"/>
        </edge>
    </timestep>
    <timestep time="0.90">
        <edge id="bottom">
            <lane id="bottom_0">
                <vehicle id="cfm-slow_0" pos="7.40" speed="11.99"/>
                <vehicle id="cfm-slow_1" pos="23.23" speed="11.99"/>
                <vehicle id="cfm-slow_2" pos="39.06" speed="11.99"/>
            </lane>
            <lane id="bottom_1"/>
        </edge>
        <edge id="left">
            <lane id="left_0">
                <vehicle id="cfm-fast_3" pos="0.15" speed="13.11"/>
                <vehicle id="cfm-fast_4" pos="15.99" speed="13.12"/>
                <vehicle id="cfm-fast_5" pos="31.85" speed="13.37"/>
            </lane>
            <lane id="left_1"/>
        </edge>
        <edge id="right">
            <lane id="right_0">
                <vehicle id="cfm-slow_3" pos="4.90" speed="11.99"/>
                <vehicle id="cfm-slow_4" pos="20.73" speed="12.00"/>
                <vehicle id="cfm-slow_5" pos="36.59" speed="12.14"/>
            </lane>
            <lane id="right_1"/>
        </edge>
        <edge id="top">
            <lane id="top_0">
                <vehicle id="cfm-fast_0" pos="2.65" speed="13.11"/>
                <vehicle id="cfm-fast_1" pos="18.49" speed="13.11"/>
                <vehicle id="cfm-fast_2" pos="34.32" speed="13.11"/>
            </lane>
            <lane id="top_1"/>
        </edge>
    </timestep>
    <timestep time="1.00">
        <edge id="bottom">
            <lane id="bottom_0">
                <vehicle id="cfm-slow_0" pos="8.68" speed="12.87"/>
                <vehicle id="cfm-slow_1" pos="24.52" speed="12.87"/>
                <vehicle id="cfm-slow_2" pos="40.35" speed="12.87"/>
            </lane>
            <lane id="bottom_1"/>
        </edge>
        <edge id="left">
            <lane id="left_0">
                <vehicle id="cfm-fast_3" pos="1.58" speed="14.27"/>
                <vehicle id="cfm-fast_4" pos="17.42" speed="14.31"/>
                <vehicle id="cfm-fast_5" pos="33.33" speed="14.85"/>
            </lane>
            <lane id="left_1"/>
        </edge>
        <edge id="right">
            <lane id="right_0">
                <vehicle id="cfm-slow_3" pos="6.18" speed="12.87"/>
                <vehicle id="cfm-slow_4" pos="22.02" speed="12.89"/>
                <vehicle id="cfm-slow_5" pos="37.90" speed="13.12"/>
            </lane>
            <lane id="right_1"/>
        </edge>
        <edge id="top">
            <lane id="top_0">
                <vehicle id="cfm-fast_0" pos="4.08" speed="14.27"/>
                <vehicle id="cfm-fast_1" pos="19.91" speed="14.27"/>
                <vehicle id="cfm-fast_2" pos="35.75" speed="14.27"/>
            </lane>
            <lane id="top_1"/>
        </edge>
    </timestep>
    <timestep time="1.10">
        <edge id="bottom">
            <lane id="bottom_0">
                <vehicle id="cfm-slow_0" pos="10.05" speed="13.66"/>
                <vehicle id="cfm-slow_1" pos="25.88" speed="13.66"/>
                <vehicle id="cfm-slow_2" pos="41.71" speed="13.66"/>
            </lane>
            <lane id="bottom_1"/>
        </edge>
        <edge id="left">
            <lane id="left_0">
                <vehicle id="cfm-fast_3" pos="3.11" speed="15.32"/>
                <vehicle id="cfm-fast_4" pos="18.96" speed="15.41"/>
                <vehicle id="cfm-fast_5" pos="34.97" speed="16.34"/>
            </lane>
            <lane id="left_1"/>
        </edge>
        <edge id="right">
            <lane id="right_0">
                <vehicle id="cfm-slow_3" pos="7.55" speed="13.66"/>
                <vehicle id="cfm-slow_4" pos="23.39" speed="13.70"/>
                <vehicle id="cfm-slow_5" pos="39.30" speed="14.03"/>
            </lane>
            <lane id="right_1"/>
        </edge>
        <edge id="top">
            <lane id="top_0">
                <vehicle id="cfm-fast_0" pos="5.61" speed="15.32"/>
                <vehicle id="cfm-fast_1" pos="21.44" speed="15.32"/>
                <vehicle id="cfm-fast_2" pos="37.28" speed="15.32"/>
            </lane>
            <lane id="top_1"/>
        </edge>
    </timestep>
    <timestep time="1.20">
        <edge id="bottom">
            <lane id="bottom_0">
                <vehicle id="cfm-slow_0" pos="11.48" speed="14.37"/>
                <vehicle id="cfm-slow_1" pos="27.32" speed="14.37"/>
                <vehicle id="cfm-slow_2" pos="43.15" speed="14.37"/>
            </lane>
            <lane id="bottom_1"/>
        </edge>
        <edge id="left">
            <lane id="left_0">
                <vehicle id="cfm-fast_3" pos="4.74" speed="16.27"/>
                <vehicle id="cfm-fast_4" pos="20.60" speed="16.45"/>
                <vehicle id="cfm-fast_5" pos="36.75" speed="17.82"/>
            </lane>
            <lane id="left_1"/>
        </edge>
        <edge id="right">
            <lane id="right_0">
                <vehicle id="cfm-slow_3" pos="8.99" speed="14.37"/>
                <vehicle id="cfm-slow_4" pos="24.83" speed="14.45"/>
                <vehicle id="cfm-slow_5" pos="40.79" speed="14.88"/>
            </lane>
            <lane id="right_1"/>
        </edge>
        <edge id="top">
            <lane id="top_0">
                <vehicle id="cfm-fast_0" pos="7.24" speed="16.26"/>
                <vehicle id="cfm-fast_1" pos="23.07" speed="16.26"/>
                <vehicle id="cfm-fast_2" pos="38.90" speed="16.26"/>
            </lane>
            <lane id="top_1"/>
        </edge>
    </timestep>
    <timestep time="1.30">
        <edge id="bottom">
            <lane id="bottom_0">
                <vehicle id="cfm-slow_0" pos="12.99" speed="15.01"/>
                <vehicle id="cfm-slow_1" pos="28.82" speed="15.01"/>
                <vehicle id="cfm-slow_2" pos="44.65" speed="15.01"/>
            </lane>
            <lane id="bottom_1"/>
        </edge>
        <edge id="left">
            <lane id="left_0">
                <vehicle id="cfm-fast_3" pos="6.45" speed="17.14"/>
                <vehicle id="cfm-fast_4" pos="22.35" speed="17.45"/>
                <vehicle id="cfm-fast_5" pos="38.66" speed="19.06"/>
            </lane>
            <lane id="left_1"/>
        </edge>
        <edge id="right">
            <lane id="right_0">
                <vehicle id="cfm-slow_3" pos="10.49" speed="15.02"/>
                <vehicle id="cfm-slow_4" pos="26.35" speed="15.14"/>
                <vehicle id="cfm-slow_5" pos="42.36" speed="15.67"/>
            </lane>
            <lane id="right_1"/>
        </edge>
        <edge id="top">
            <lane id="top_0">
                <vehicle id="cfm-fast_0" pos="8.95" speed="17.11"/>
                <vehicle id="cfm-fast_1" pos="24.78" speed="17.11"/>
                <vehicle id="cfm-fast_2" pos="40.62" speed="17.11"/>
            </lane>
            <lane id="top_1"/>
        </edge>
    </timestep>
    <timestep time="1.40">
        <edge id="bottom">
            <lane id="bottom_0">
                <vehicle id="cfm-slow_0" pos="14.54" speed="15.58"/>
                <vehicle id="cfm-slow_1" pos="30.38" speed="15.58"/>
                <vehicle id="cfm-slow_2" pos="46.21" speed="15.59"/>
            </lane>
            <lane id="bottom_1"/>
        </edge>
        <edge id="left">
            <lane id="left_0">
                <vehicle id="cfm-fast_3" pos="8.25" speed="17.94"/>
                <vehicle id="cfm-fast_4" pos="24.19" speed="18.39"/>
                <vehicle id="cfm-fast_5" pos="40.66" speed="20.07"/>
            </lane>
            <lane id="left_1"/>
        </edge>
        <edge id="right">
            <lane id="right_0">
                <vehicle id="cfm-slow_3" pos="12.05" speed="15.61"/>
                <vehicle id="cfm-slow_4" pos="27.93" speed="15.77"/>
                <vehicle id="cfm-slow_5" pos="44.00" speed="16.40"/>
            </lane>
            <lane id="right_1"/>
        </edge>
        <edge id="top">
            <lane id="top_0">
                <vehicle id="cfm-fast_0" pos="10.74" speed="17.87"/>
                <vehicle id="cfm-fast_1" pos="26.57" speed="17.87"/>
                <vehicle id="cfm-fast_2" pos="42.40" speed="17.88"/>
            </lane>
            <lane id="top_1"/>
        </edge>
    </timestep>
    <timestep time="1.50">
        <edge id="bottom">
            <lane id="bottom_0">
                <vehicle id="cfm-slow_0" pos="16.15" speed="16.10"/>
                <vehicle id="cfm-slow_1" pos="31.99" speed="16.10"/>
                <vehicle id="cfm-slow_2" pos="47.82" speed="16.11"/>
            </lane>
            <lane id="bottom_1"/>
        </edge>
        <edge id="left">
            <lane id="left_0">
                <vehicle id="cfm-fast_3" pos="10.12" speed="18.68"/>
                <vehicle id="cfm-fast_4" pos="26.11" speed="19.25"/>
                <vehicle id="cfm-fast_5" pos="42.75" speed="20.89"/>
            </lane>
            <lane id="left_1"/>
        </edge>
        <edge id="right">
            <lane id="right_0">
                <vehicle id="cfm-slow_3" pos="13.66" speed="16.15"/>
                <vehicle id="cfm-slow_4" pos="29.56" speed="16.36"/>
                <vehicle id="cfm-slow_5" pos="45.70" speed="17.07"/>
            </lane>
            <lane id="right_1"/>
        </edge>
        <edge id="top">
            <lane id="top_0">
                <vehicle id="cfm-fast_0" pos="12.59" speed="18.56"/>
                <vehicle id="cfm-fast_1" pos="28.43" speed="18.56"/>
                <vehicle id="cfm-fast_2" pos="44.26" speed="18.58"/>
            </lane>
            <lane id="top_1"/>
        </edge>
    </timestep>
    <timestep time="1.60">
        <edge id="bottom">
            <lane id="bottom_0">
                <vehicle id="cfm-slow_0" pos="17.81" speed="16.57"/>
                <vehicle id="cfm-slow_1" pos="33.64" speed="16.57"/>
                <vehicle id="cfm-slow_2" pos="49.48" speed="16.58"/>
            </lane>
            <lane id="bottom_1"/>
        </edge>
        <edge id="left">
            <lane id="left_0">
                <vehicle id="cfm-fast_3" pos="12.05" speed="19.36"/>
                <vehicle id="cfm-fast_4" pos="28.12" speed="20.05"/>
                <vehicle id="cfm-fast_5" pos="44.91" speed="21.56"/>
            </lane>
            <lane id="left_1"/>
        </edge>
        <edge id="right">
            <lane id="right_0">
                <vehicle id="cfm-slow_3" pos="15.33" speed="16.64"/>
                <vehicle id="cfm-slow_4" pos="31.25" speed="16.90"/>
                <vehicle id="cfm-slow_5" pos="47.47" speed="17.70"/>
            </lane>
            <lane id="right_1"/>
        </edge>
        <edge id="top">
            <lane id="top_0">
                <vehicle id="cfm-fast_0" pos="14.51" speed="19.18"/>
                <vehicle id="cfm-fast_1" pos="30.34" speed="19.19"/>
                <vehicle id="cfm-fast_2" pos="46.18" speed="19.21"/>
            </lane>
            <lane id="top_1"/>
        </edge>
    </timestep>
    <timestep time="1.70">
        <edge id="bottom">
            <lane id="bottom_0">
                <vehicle id="cfm-slow_0" pos="19.51" speed="16.99"/>
                <vehicle id="cfm-slow_1" pos="35.34" speed="17.00"/>
            </lane>
            <lane id="bottom_1"/>
        </edge>
        <edge id="left">
            <lane id="left_0">
                <vehicle id="cfm-fast_3" pos="14.05" speed="19.99"/>
                <vehicle id="cfm-fast_4" pos="30.19" speed="20.77"/>
                <vehicle id="cfm-fast_5" pos="47.12" speed="22.09"/>
            </lane>
            <lane id="left_1"/>
        </edge>
        <edge id="right">
            <lane id="right_0">
                <vehicle id="cfm-slow_2" pos="1.18" speed="17.01"/>
                <vehicle id="cfm-slow_3" pos="17.04" speed="17.09"/>
                <vehicle id="cfm-slow_4" pos="32.99" speed="17.41"/>
                <vehicle id="cfm-slow_5" pos="49.30" speed="18.27"/>
            </lane>
            <lane id="right_1"/>
        </edge>
        <edge id="top">
            <lane id="top_0">
                <vehicle id="cfm-fast_0" pos="16.49" speed="19.74"/>
                <vehicle id="cfm-fast_1" pos="32.32" speed="19.75"/>
                <vehicle id="cfm-fast_2" pos="48.16" speed="19.78"/>
            </lane>
            <lane id="top_1"/>
        </edge>
    </timestep>
    <timestep time="1.80">
        <edge id="bottom">
            <lane id="bottom_0">
                <vehicle id="cfm-slow_0" pos="21.25" speed="17.37"/>
                <vehicle id="cfm-slow_1" pos="37.08" speed="17.38"/>
            </lane>
            <lane id="bottom_1"/>
        </edge>
        <edge id="left">
            <lane id="left_0">
                <vehicle id="cfm-fast_2" pos="0.19" speed="20.31"/>
                <vehicle id="cfm-fast_3" pos="16.11" speed="20.58"/>
                <vehicle id="cfm-fast_4" pos="32.33" speed="21.41"/>
                <vehicle id="cfm-fast_5" pos="49.37" speed="22.51"/>
            </lane>
            <lane id="left_1"/>
        </edge>
        <edge id="right">
            <lane id="right_0">
                <vehicle id="cfm-slow_2" pos="2.92" speed="17.40"/>
                <vehicle id="cfm-slow_3" pos="18.79" speed="17.50"/>
                <vehicle id="cfm-slow_4" pos="34.78" speed="17.88"/>
            </lane>
            <lane id="right_1"/>
        </edge>
        <edge id="top">
            <lane id="top_0">
                <vehicle id="cfm-slow_5" pos="1.18" speed="18.81"/>
                <vehicle id="cfm-fast_0" pos="18.51" speed="20.25"/>
                <vehicle id="cfm-fast_1" pos="34.35" speed="20.26"/>
            </lane>
            <lane id="top_1"/>
        </edge>
    </timestep>
    <timestep time="1.90">
        <edge id="bottom">
            <lane id="bottom_0">
                <vehicle id="cfm-fast_5" pos="1.65" speed="22.83"/>
                <vehicle id="cfm-slow_0" pos="23.02" speed="17.72"/>
                <vehicle id="cfm-slow_1" pos="38.85" speed="17.72"/>
            </lane>
            <lane id="bottom_1"/>
        </edge>
        <edge id="left">
            <lane id="left_0">
                <vehicle id="cfm-fast_2" pos="2.27" speed="20.79"/>
                <vehicle id="cfm-fast_3" pos="18.22" speed="21.12"/>
                <vehicle id="cfm-fast_4" pos="34.53" speed="21.97"/>
            </lane>
            <lane id="left_1"/>
        </edge>
        <edge id="right">
            <lane id="right_0">
                <vehicle id="cfm-slow_2" pos="4.70" speed="17.75"/>
                <vehicle id="cfm-slow_3" pos="20.58" speed="17.89"/>
                <vehicle id="cfm-slow_4" pos="36.61" speed="18.32"/>
            </lane>
            <lane id="right_1"/>
        </edge>
        <edge id="top">
            <lane id="top_0">
                <vehicle id="cfm-slow_5" pos="3.11" speed="19.30"/>
                <vehicle id="cfm-fast_0" pos="20.58" speed="20.70"/>
                <vehicle id="cfm-fast_1" pos="36.42" speed="20.72"/>
            </lane>
            <lane id="top_1"/>
        </edge>
    </timestep>
    <timestep time="2.00">
        <edge id="bottom">
            <lane id="bottom_0">
                <vehicle id="cfm-fast_5" pos="3.96" speed="23.07"/>
                <vehicle id="cfm-slow_0" pos="24.82" speed="18.03"/>
                <vehicle id="cfm-slow_1" pos="40.66" speed="18.03"/>
            </lane>
            <lane id="bottom_1"/>
        </edge>
        <edge id="left">
            <lane id="left_0">
                <vehicle id="cfm-fast_2" pos="4.39" speed="21.24"/>
                <vehicle id="cfm-fast_3" pos="20.38" speed="21.62"/>
                <vehicle id="cfm-fast_4" pos="36.78" speed="22.47"/>
            </lane>
            <lane id="left_1"/>
        </edge>
        <edge id="right">
            <lane id="right_0">
                <vehicle id="cfm-slow_2" pos="6.50" speed="18.08"/>
                <vehicle id="cfm-slow_3" pos="22.40" speed="18.24"/>
                <vehicle id="cfm-slow_4" pos="38.49" speed="18.73"/>
            </lane>
            <lane id="right_1"/>
        </edge>
        <edge id="top">
            <lane id="top_0">
                <vehicle id="cfm-slow_5" pos="5.09" speed="19.75"/>
                <vehicle id="cfm-fast_0" pos="22.69" speed="21.11"/>