<?xml version="1.0" encoding="UTF-8"?>

<!-- generated on Mon Feb 27 13:42:47 2017 by SUMO Version 0.29.0
<?xml version="1.0" encoding="UTF-8"?>

<configuration xmlns:xsi="http://www.w3.org/2001/XMLSchema-instance" xsi:noNamespaceSchemaLocation="http://sumo.dlr.de/xsd/sumoConfiguration.xsd">

    <input>
        <net-file value="debug/cfg/tutorial-experiment-200m2l.net.xml"/>
        <route-files value="debug/cfg/tutorial-experiment-200m2l.rou.xml"/>
        <additional-files value="debug/cfg/tutorial-experiment-200m2l.add.xml"/>
    </input>

    <output>
        <netstate-dump value="debug/cfg/data/tutorial-experiment-200m2l.netstate.xml"/>
        <emission-output value="debug/cfg/data/tutorial-experiment-200m2l.emission.xml"/>
        <amitran-output value="debug/cfg/data/tutorial-experiment-200m2l.amitran.xml"/>
        <lanechange-output value="debug/cfg/data/tutorial-experiment-200m2l.lanechange.xml"/>
    </output>

    <time>
        <begin value="0"/>
        <end value="3000"/>
        <step-length value="0.1"/>
    </time>

    <traci_server>
        <remote-port value="8873"/>
    </traci_server>

    <gui_only>
        <gui-settings-file value="debug/cfg/tutorial-experiment-200m2l.gui.cfg"/>
    </gui_only>

</configuration>
-->

<emission-export xmlns:xsi="http://www.w3.org/2001/XMLSchema-instance" xsi:noNamespaceSchemaLocation="http://sumo.dlr.de/xsd/emission_file.xsd">
    <timestep time="0.00">
        <vehicle id="cfm-fast_0" eclass="HBEFA3/PC_G_EU4" CO2="2624.72" CO="164.78" HC="0.81" NOx="1.20" PMx="0.07" fuel="1.13" electricity="0.00" noise="55.94" route="routeright" type="cfm-fast" waiting="0.00" lane="right_0" pos="46.00" speed="0.00" angle="281.75" x="72.34" y="131.72"/>
        <vehicle id="cfm-fast_1" eclass="HBEFA3/PC_G_EU4" CO2="2624.72" CO="164.78" HC="0.81" NOx="1.20" PMx="0.07" fuel="1.13" electricity="0.00" noise="55.94" route="routetop" type="cfm-fast" waiting="0.00" lane="top_0" pos="11.83" speed="0.00" angle="253.14" x="38.70" y="127.56"/>
        <vehicle id="cfm-fast_2" eclass="HBEFA3/PC_G_EU4" CO2="2624.72" CO="164.78" HC="0.81" NOx="1.20" PMx="0.07" fuel="1.13" electricity="0.00" noise="55.94" route="routetop" type="cfm-fast" waiting="0.00" lane="top_0" pos="27.67" speed="0.00" angle="224.69" x="11.28" y="107.95"/>
        <vehicle id="cfm-fast_3" eclass="HBEFA3/PC_G_EU4" CO2="2624.72" CO="164.78" HC="0.81" NOx="1.20" PMx="0.07" fuel="1.13" electricity="0.00" noise="55.94" route="routetop" type="cfm-fast" waiting="0.00" lane="top_0" pos="43.50" speed="0.00" angle="196.26" x="-3.51" y="77.65"/>
        <vehicle id="cfm-fast_4" eclass="HBEFA3/PC_G_EU4" CO2="2624.72" CO="164.78" HC="0.81" NOx="1.20" PMx="0.07" fuel="1.13" electricity="0.00" noise="55.94" route="routeleft" type="cfm-fast" waiting="0.00" lane="left_0" pos="9.33" speed="0.00" angle="167.63" x="-1.99" y="43.78"/>
        <vehicle id="cfm-fast_5" eclass="HBEFA3/PC_G_EU4" CO2="2624.72" CO="164.78" HC="0.81" NOx="1.20" PMx="0.07" fuel="1.13" electricity="0.00" noise="55.94" route="routeleft" type="cfm-fast" waiting="0.00" lane="left_0" pos="25.17" speed="0.00" angle="139.20" x="15.41" y="14.90"/>
        <vehicle id="cfm-slow_0" eclass="HBEFA3/PC_G_EU4" CO2="2624.72" CO="164.78" HC="0.81" NOx="1.20" PMx="0.07" fuel="1.13" electricity="0.00" noise="55.94" route="routebottom" type="cfm-slow" waiting="0.00" lane="bottom_0" pos="1.00" speed="0.00" angle="92.66" x="65.91" y="-4.90"/>
        <vehicle id="cfm-slow_1" eclass="HBEFA3/PC_G_EU4" CO2="2624.72" CO="164.78" HC="0.81" NOx="1.20" PMx="0.07" fuel="1.13" electricity="0.00" noise="55.94" route="routebottom" type="cfm-slow" waiting="0.00" lane="bottom_0" pos="16.83" speed="0.00" angle="64.18" x="98.30" y="4.45"/>
        <vehicle id="cfm-slow_2" eclass="HBEFA3/PC_G_EU4" CO2="2624.72" CO="164.78" HC="0.81" NOx="1.20" PMx="0.07" fuel="1.13" electricity="0.00" noise="55.94" route="routebottom" type="cfm-slow" waiting="0.00" lane="bottom_0" pos="32.67" speed="0.00" angle="35.75" x="122.33" y="28.10"/>
        <vehicle id="cfm-slow_3" eclass="HBEFA3/PC_G_EU4" CO2="2624.72" CO="164.78" HC="0.81" NOx="1.20" PMx="0.07" fuel="1.13" electricity="0.00" noise="55.94" route="routebottom" type="cfm-slow" waiting="0.00" lane="bottom_0" pos="48.50" speed="0.00" angle="7.24" x="132.19" y="60.34"/>
        <vehicle id="cfm-slow_4" eclass="HBEFA3/PC_G_EU4" CO2="2624.72" CO="164.78" HC="0.81" NOx="1.20" PMx="0.07" fuel="1.13" electricity="0.00" noise="55.94" route="routeright" type="cfm-slow" waiting="0.00" lane="right_0" pos="14.33" speed="0.00" angle="338.68" x="125.41" y="93.56"/>
        <vehicle id="cfm-slow_5" eclass="HBEFA3/PC_G_EU4" CO2="2624.72" CO="164.78" HC="0.81" NOx="1.20" PMx="0.07" fuel="1.13" electricity="0.00" noise="55.94" route="routeright" type="cfm-slow" waiting="0.00" lane="right_0" pos="30.17" speed="0.00" angle="310.20" x="103.71" y="119.35"/>
    </timestep>
    <timestep time="0.10">
        <vehicle id="cfm-fast_0" eclass="HBEFA3/PC_G_EU4" CO2="8198.78" CO="254.21" HC="1.36" NOx="3.79" PMx="0.20" fuel="3.52" electricity="0.00" noise="121.85" route="routeright" type="cfm-fast" waiting="0.00" lane="right_0" pos="46.15" speed="1.49" angle="281.52" x="72.03" y="131.77"/>
        <vehicle id="cfm-fast_1" eclass="HBEFA3/PC_G_EU4" CO2="8198.78" CO="254.21" HC="1.36" NOx="3.79" PMx="0.20" fuel="3.52" electricity="0.00" noise="121.85" route="routetop" type="cfm-fast" waiting="0.00" lane="top_0" pos="11.98" speed="1.49" angle="252.87" x="38.40" y="127.44"/>
        <vehicle id="cfm-fast_2" eclass="HBEFA3/PC_G_EU4" CO2="8198.78" CO="254.21" HC="1.36" NOx="3.79" PMx="0.20" fuel="3.52" electricity="0.00" noise="121.85" route="routetop" type="cfm-fast" waiting="0.00" lane="top_0" pos="27.82" speed="1.49" angle="224.41" x="11.07" y="107.71"/>
        <vehicle id="cfm-fast_3" eclass="HBEFA3/PC_G_EU4" CO2="8198.78" CO="254.21" HC="1.36" NOx="3.79" PMx="0.20" fuel="3.52" electricity="0.00" noise="121.85" route="routetop" type="cfm-fast" waiting="0.00" lane="top_0" pos="43.65" speed="1.49" angle="196.05" x="-3.58" y="77.34"/>
        <vehicle id="cfm-fast_4" eclass="HBEFA3/PC_G_EU4" CO2="8198.78" CO="254.21" HC="1.36" NOx="3.79" PMx="0.20" fuel="3.52" electricity="0.00" noise="121.85" route="routeleft" type="cfm-fast" waiting="0.00" lane="left_0" pos="9.48" speed="1.49" angle="167.35" x="-1.90" y="43.47"/>
        <vehicle id="cfm-fast_5" eclass="HBEFA3/PC_G_EU4" CO2="8198.78" CO="254.21" HC="1.36" NOx="3.79" PMx="0.20" fuel="3.52" electricity="0.00" noise="121.85" route="routeleft" type="cfm-fast" waiting="0.00" lane="left_0" pos="25.32" speed="1.49" angle="138.93" x="15.63" y="14.68"/>
        <vehicle id="cfm-slow_0" eclass="HBEFA3/PC_G_EU4" CO2="8198.78" CO="254.21" HC="1.36" NOx="3.79" PMx="0.20" fuel="3.52" electricity="0.00" noise="121.85" route="routebottom" type="cfm-slow" waiting="0.00" lane="bottom_0" pos="1.15" speed="1.49" angle="92.39" x="66.23" y="-4.89"/>
        <vehicle id="cfm-slow_1" eclass="HBEFA3/PC_G_EU4" CO2="8198.78" CO="254.21" HC="1.36" NOx="3.79" PMx="0.20" fuel="3.52" electricity="0.00" noise="121.85" route="routebottom" type="cfm-slow" waiting="0.00" lane="bottom_0" pos="16.98" speed="1.49" angle="63.91" x="98.58" y="4.61"/>
        <vehicle id="cfm-slow_2" eclass="HBEFA3/PC_G_EU4" CO2="8198.78" CO="254.21" HC="1.36" NOx="3.79" PMx="0.20" fuel="3.52" electricity="0.00" noise="121.85" route="routebottom" type="cfm-slow" waiting="0.00" lane="bottom_0" pos="32.82" speed="1.49" angle="35.47" x="122.49" y="28.38"/>
        <vehicle id="cfm-slow_3" eclass="HBEFA3/PC_G_EU4" CO2="8198.78" CO="254.21" HC="1.36" NOx="3.79" PMx="0.20" fuel="3.52" electricity="0.00" noise="121.85" route="routebottom" type="cfm-slow" waiting="0.00" lane="bottom_0" pos="48.65" speed="1.49" angle="6.98" x="132.21" y="60.66"/>
        <vehicle id="cfm-slow_4" eclass="HBEFA3/PC_G_EU4" CO2="8198.78" CO="254.21" HC="1.36" NOx="3.79" PMx="0.20" fuel="3.52" electricity="0.00" noise="121.85" route="routeright" type="cfm-slow" waiting="0.00" lane="right_0" pos="14.48" speed="1.49" angle="338.40" x="125.27" y="93.85"/>
        <vehicle id="cfm-slow_5" eclass="HBEFA3/PC_G_EU4" CO2="8198.78" CO="254.21" HC="1.36" NOx="3.79" PMx="0.20" fuel="3.52" electricity="0.00" noise="121.85" route="routeright" type="cfm-slow" waiting="0.00" lane="right_0" pos="30.32" speed="1.49" angle="309.93" x="103.45" y="119.54"/>
    </timestep>
    <timestep time="0.20">
        <vehicle id="cfm-fast_0" eclass="HBEFA3/PC_G_EU4" CO2="13807.46" CO="346.19" HC="1.91" NOx="6.40" PMx="0.34" fuel="5.94" electricity="0.00" noise="122.43" route="routeright" type="cfm-fast" waiting="0.00" lane="right_0" pos="46.45" speed="2.97" angle="281.00" x="71.39" y="131.83"/>
        <vehicle id="cfm-fast_1" eclass="HBEFA3/PC_G_EU4" CO2="13807.46" CO="346.19" HC="1.91" NOx="6.40" PMx="0.34" fuel="5.94" electricity="0.00" noise="122.43" route="routetop" type="cfm-fast" waiting="0.00" lane="top_0" pos="12.28" speed="2.97" angle="252.34" x="37.81" y="127.20"/>
        <vehicle id="cfm-fast_2" eclass="HBEFA3/PC_G_EU4" CO2="13807.46" CO="346.19" HC="1.91" NOx="6.40" PMx="0.34" fuel="5.94" electricity="0.00" noise="122.43" route="routetop" type="cfm-fast" waiting="0.00" lane="top_0" pos="28.11" speed="2.97" angle="223.87" x="10.65" y="107.22"/>
        <vehicle id="cfm-fast_3" eclass="HBEFA3/PC_G_EU4" CO2="13807.46" CO="346.19" HC="1.91" NOx="6.40" PMx="0.34" fuel="5.94" electricity="0.00" noise="122.43" route="routetop" type="cfm-fast" waiting="0.00" lane="top_0" pos="43.95" speed="2.97" angle="195.49" x="-3.69" y="76.71"/>
        <vehicle id="cfm-fast_4" eclass="HBEFA3/PC_G_EU4" CO2="13807.46" CO="346.19" HC="1.91" NOx="6.40" PMx="0.34" fuel="5.94" electricity="0.00" noise="122.43" route="routeleft" type="cfm-fast" waiting="0.00" lane="left_0" pos="9.78" speed="2.97" angle="166.80" x="-1.71" y="42.86"/>
        <vehicle id="cfm-fast_5" eclass="HBEFA3/PC_G_EU4" CO2="13807.46" CO="346.19" HC="1.91" NOx="6.40" PMx="0.34" fuel="5.94" electricity="0.00" noise="122.43" route="routeleft" type="cfm-fast" waiting="0.00" lane="left_0" pos="25.61" speed="2.97" angle="138.43" x="16.09" y="14.22"/>
        <vehicle id="cfm-slow_0" eclass="HBEFA3/PC_G_EU4" CO2="13807.46" CO="346.19" HC="1.91" NOx="6.40" PMx="0.34" fuel="5.94" electricity="0.00" noise="122.43" route="routebottom" type="cfm-slow" waiting="0.00" lane="bottom_0" pos="1.45" speed="2.97" angle="91.88" x="66.87" y="-4.86"/>
        <vehicle id="cfm-slow_1" eclass="HBEFA3/PC_G_EU4" CO2="13807.46" CO="346.19" HC="1.91" NOx="6.40" PMx="0.34" fuel="5.94" electricity="0.00" noise="122.43" route="routebottom" type="cfm-slow" waiting="0.00" lane="bottom_0" pos="17.28" speed="2.97" angle="63.36" x="99.13" y="4.94"/>
        <vehicle id="cfm-slow_2" eclass="HBEFA3/PC_G_EU4" CO2="13807.46" CO="346.19" HC="1.91" NOx="6.40" PMx="0.34" fuel="5.94" electricity="0.00" noise="122.43" route="routebottom" type="cfm-slow" waiting="0.00" lane="bottom_0" pos="33.11" speed="2.97" angle="34.92" x="122.82" y="28.93"/>
        <vehicle id="cfm-slow_3" eclass="HBEFA3/PC_G_EU4" CO2="13807.46" CO="346.19" HC="1.91" NOx="6.40" PMx="0.34" fuel="5.94" electricity="0.00" noise="122.43" route="routebottom" type="cfm-slow" waiting="0.00" lane="bottom_0" pos="48.95" speed="2.97" angle="6.47" x="132.23" y="61.30"/>
        <vehicle id="cfm-slow_4" eclass="HBEFA3/PC_G_EU4" CO2="13807.46" CO="346.19" HC="1.91" NOx="6.40" PMx="0.34" fuel="5.94" electricity="0.00" noise="122.43" route="routeright" type="cfm-slow" waiting="0.00" lane="right_0" pos="14.78" speed="2.97" angle="337.83" x="124.98" y="94.42"/>
        <vehicle id="cfm-slow_5" eclass="HBEFA3/PC_G_EU4" CO2="13807.46" CO="346.19" HC="1.91" NOx="6.40" PMx="0.34" fuel="5.94" electricity="0.00" noise="122.43" route="routeright" type="cfm-slow" waiting="0.00" lane="right_0" pos="30.61" speed="2.97" angle="309.38" x="102.93" y="119.91"/>
    </timestep>
    <timestep time="0.30">
        <vehicle id="cfm-fast_0" eclass="HBEFA3/PC_G_EU4" CO2="19450.77" CO="440.74" HC="2.48" NOx="9.02" PMx="0.48" fuel="8.36" electricity="0.00" noise="123.03" route="routeright" type="cfm-fast" waiting="0.00" lane="right_0" pos="46.89" speed="4.46" angle="280.18" x="70.44" y="131.93"/>
        <vehicle id="cfm-fast_1" eclass="HBEFA3/PC_G_EU4" CO2="19450.77" CO="440.74" HC="2.48" NOx="9.02" PMx="0.48" fuel="8.36" electricity="0.00" noise="123.03" route="routetop" type="cfm-fast" waiting="0.00" lane="top_0" pos="12.72" speed="4.46" angle="251.55" x="36.92" y="126.85"/>
        <vehicle id="cfm-fast_2" eclass="HBEFA3/PC_G_EU4" CO2="19450.77" CO="440.74" HC="2.48" NOx="9.02" PMx="0.48" fuel="8.36" electricity="0.00" noise="123.03" route="routetop" type="cfm-fast" waiting="0.00" lane="top_0" pos="28.56" speed="4.46" angle="223.11" x="10.06" y="106.47"/>
        <vehicle id="cfm-fast_3" eclass="HBEFA3/PC_G_EU4" CO2="19450.77" CO="440.74" HC="2.48" NOx="9.02" PMx="0.48" fuel="8.36" electricity="0.00" noise="123.03" route="routetop" type="cfm-fast" waiting="0.00" lane="top_0" pos="44.39" speed="4.46" angle="194.66" x="-3.87" y="75.76"/>
        <vehicle id="cfm-fast_4" eclass="HBEFA3/PC_G_EU4" CO2="19450.77" CO="440.74" HC="2.48" NOx="9.02" PMx="0.48" fuel="8.36" electricity="0.00" noise="123.03" route="routeleft" type="cfm-fast" waiting="0.00" lane="left_0" pos="10.22" speed="4.46" angle="166.04" x="-1.43" y="41.95"/>
        <vehicle id="cfm-fast_5" eclass="HBEFA3/PC_G_EU4" CO2="19450.77" CO="440.74" HC="2.48" NOx="9.02" PMx="0.48" fuel="8.36" electricity="0.00" noise="123.03" route="routeleft" type="cfm-fast" waiting="0.00" lane="left_0" pos="26.06" speed="4.46" angle="137.62" x="16.79" y="13.57"/>
        <vehicle id="cfm-slow_0" eclass="HBEFA3/PC_G_EU4" CO2="19450.77" CO="440.74" HC="2.48" NOx="9.02" PMx="0.48" fuel="8.36" electricity="0.00" noise="123.03" route="routebottom" type="cfm-slow" waiting="0.00" lane="bottom_0" pos="1.89" speed="4.46" angle="91.08" x="67.83" y="-4.81"/>
        <vehicle id="cfm-slow_1" eclass="HBEFA3/PC_G_EU4" CO2="19450.77" CO="440.74" HC="2.48" NOx="9.02" PMx="0.48" fuel="8.36" electricity="0.00" noise="123.03" route="routebottom" type="cfm-slow" waiting="0.00" lane="bottom_0" pos="17.72" speed="4.46" angle="62.54" x="99.95" y="5.43"/>
        <vehicle id="cfm-slow_2" eclass="HBEFA3/PC_G_EU4" CO2="19450.77" CO="440.74" HC="2.48" NOx="9.02" PMx="0.48" fuel="8.36" electricity="0.00" noise="123.03" route="routebottom" type="cfm-slow" waiting="0.00" lane="bottom_0" pos="33.56" speed="4.46" angle="34.15" x="123.30" y="29.76"/>
        <vehicle id="cfm-slow_3" eclass="HBEFA3/PC_G_EU4" CO2="19450.77" CO="440.74" HC="2.48" NOx="9.02" PMx="0.48" fuel="8.36" electricity="0.00" noise="123.03" route="routebottom" type="cfm-slow" waiting="0.00" lane="bottom_0" pos="49.39" speed="4.46" angle="5.64" x="132.25" y="62.26"/>
        <vehicle id="cfm-slow_4" eclass="HBEFA3/PC_G_EU4" CO2="19450.77" CO="440.74" HC="2.48" NOx="9.02" PMx="0.48" fuel="8.36" electricity="0.00" noise="123.03" route="routeright" type="cfm-slow" waiting="0.00" lane="right_0" pos="15.22" speed="4.46" angle="336.99" x="124.55" y="95.27"/>
        <vehicle id="cfm-slow_5" eclass="HBEFA3/PC_G_EU4" CO2="19450.77" CO="440.74" HC="2.48" NOx="9.02" PMx="0.48" fuel="8.36" electricity="0.00" noise="123.03" route="routeright" type="cfm-slow" waiting="0.00" lane="right_0" pos="31.06" speed="4.46" angle="308.62" x="102.14" y="120.46"/>
    </timestep>
    <timestep time="0.40">
        <vehicle id="cfm-fast_0" eclass="HBEFA3/PC_G_EU4" CO2="25128.71" CO="537.84" HC="3.07" NOx="11.66" PMx="0.63" fuel="10.80" electricity="0.00" noise="123.64" route="routeright" type="cfm-fast" waiting="0.00" lane="right_0" pos="47.49" speed="5.94" angle="279.16" x="69.17" y="132.06"/>
        <vehicle id="cfm-fast_1" eclass="HBEFA3/PC_G_EU4" CO2="25128.71" CO="537.84" HC="3.07" NOx="11.66" PMx="0.63" fuel="10.80" electricity="0.00" noise="123.64" route="routetop" type="cfm-fast" waiting="0.00" lane="top_0" pos="13.32" speed="5.94" angle="250.50" x="35.75" y="126.33"/>
        <vehicle id="cfm-fast_2" eclass="HBEFA3/PC_G_EU4" CO2="25128.71" CO="537.84" HC="3.07" NOx="11.66" PMx="0.63" fuel="10.80" electricity="0.00" noise="123.64" route="routetop" type="cfm-fast" waiting="0.00" lane="top_0" pos="29.15" speed="5.94" angle="222.02" x="9.27" y="105.46"/>
        <vehicle id="cfm-fast_3" eclass="HBEFA3/PC_G_EU4" CO2="25128.71" CO="537.84" HC="3.07" NOx="11.66" PMx="0.63" fuel="10.80" electricity="0.00" noise="123.64" route="routetop" type="cfm-fast" waiting="0.00" lane="top_0" pos="44.99" speed="5.94" angle="193.63" x="-4.09" y="74.51"/>
        <vehicle id="cfm-fast_4" eclass="HBEFA3/PC_G_EU4" CO2="25128.71" CO="537.84" HC="3.07" NOx="11.66" PMx="0.63" fuel="10.80" electricity="0.00" noise="123.64" route="routeleft" type="cfm-fast" waiting="0.00" lane="left_0" pos="10.82" speed="5.94" angle="164.94" x="-1.00" y="40.74"/>
        <vehicle id="cfm-fast_5" eclass="HBEFA3/PC_G_EU4" CO2="25128.71" CO="537.84" HC="3.07" NOx="11.66" PMx="0.63" fuel="10.80" electricity="0.00" noise="123.64" route="routeleft" type="cfm-fast" waiting="0.00" lane="left_0" pos="26.65" speed="5.94" angle="136.52" x="17.73" y="12.71"/>
        <vehicle id="cfm-slow_0" eclass="HBEFA3/PC_G_EU4" CO2="25128.71" CO="537.84" HC="3.07" NOx="11.66" PMx="0.63" fuel="10.80" electricity="0.00" noise="123.64" route="routebottom" type="cfm-slow" waiting="0.00" lane="bottom_0" pos="2.49" speed="5.94" angle="90.02" x="69.10" y="-4.73"/>
        <vehicle id="cfm-slow_1" eclass="HBEFA3/PC_G_EU4" CO2="25128.71" CO="537.84" HC="3.07" NOx="11.66" PMx="0.63" fuel="10.80" electricity="0.00" noise="123.64" route="routebottom" type="cfm-slow" waiting="0.00" lane="bottom_0" pos="18.32" speed="5.94" angle="61.51" x="101.02" y="6.12"/>
        <vehicle id="cfm-slow_2" eclass="HBEFA3/PC_G_EU4" CO2="25128.71" CO="537.84" HC="3.07" NOx="11.66" PMx="0.63" fuel="10.80" electricity="0.00" noise="123.64" route="routebottom" type="cfm-slow" waiting="0.00" lane="bottom_0" pos="34.15" speed="5.94" angle="33.06" x="123.92" y="30.88"/>
        <vehicle id="cfm-slow_3" eclass="HBEFA3/PC_G_EU4" CO2="25128.71" CO="537.84" HC="3.07" NOx="11.66" PMx="0.63" fuel="10.80" electricity="0.00" noise="123.64" route="routebottom" type="cfm-slow" waiting="0.00" lane="bottom_0" pos="49.99" speed="5.94" angle="4.57" x="132.27" y="63.54"/>
        <vehicle id="cfm-slow_4" eclass="HBEFA3/PC_G_EU4" CO2="25128.71" CO="537.84" HC="3.07" NOx="11.66" PMx="0.63" fuel="10.80" electricity="0.00" noise="123.64" route="routeright" type="cfm-slow" waiting="0.00" lane="right_0" pos="15.82" speed="5.94" angle="335.98" x="123.95" y="96.40"/>
        <vehicle id="cfm-slow_5" eclass="HBEFA3/PC_G_EU4" CO2="25128.71" CO="537.84" HC="3.07" NOx="11.66" PMx="0.63" fuel="10.80" electricity="0.00" noise="123.64" route="routeright" type="cfm-slow" waiting="0.00" lane="right_0" pos="31.65" speed="5.94" angle="307.55" x="101.07" y="121.17"/>
    </timestep>
    <timestep time="0.50">
        <vehicle id="cfm-fast_0" eclass="HBEFA3/PC_G_EU4" CO2="30841.28" CO="637.49" HC="3.66" NOx="14.32" PMx="0.77" fuel="13.26" electricity="0.00" noise="124.27" route="routeright" type="cfm-fast" waiting="0.00" lane="right_0" pos="48.23" speed="7.43" angle="277.76" x="67.57" y="132.15"/>
        <vehicle id="cfm-fast_1" eclass="HBEFA3/PC_G_EU4" CO2="30841.28" CO="637.49" HC="3.66" NOx="14.32" PMx="0.77" fuel="13.26" electricity="0.00" noise="124.27" route="routetop" type="cfm-fast" waiting="0.00" lane="top_0" pos="14.06" speed="7.43" angle="249.20" x="34.29" y="125.68"/>
        <vehicle id="cfm-fast_2" eclass="HBEFA3/PC_G_EU4" CO2="30841.28" CO="637.49" HC="3.66" NOx="14.32" PMx="0.77" fuel="13.26" electricity="0.00" noise="124.27" route="routetop" type="cfm-fast" waiting="0.00" lane="top_0" pos="29.89" speed="7.43" angle="220.72" x="8.31" y="104.19"/>
        <vehicle id="cfm-fast_3" eclass="HBEFA3/PC_G_EU4" CO2="30841.28" CO="637.49" HC="3.66" NOx="14.32" PMx="0.77" fuel="13.26" electricity="0.00" noise="124.27" route="routetop" type="cfm-fast" waiting="0.00" lane="top_0" pos="45.73" speed="7.43" angle="192.26" x="-4.31" y="72.92"/>
        <vehicle id="cfm-fast_4" eclass="HBEFA3/PC_G_EU4" CO2="30841.28" CO="637.49" HC="3.66" NOx="14.32" PMx="0.77" fuel="13.26" electricity="0.00" noise="124.27" route="routeleft" type="cfm-fast" waiting="0.00" lane="left_0" pos="11.56" speed="7.43" angle="163.64" x="-0.45" y="39.24"/>
        <vehicle id="cfm-fast_5" eclass="HBEFA3/PC_G_EU4" CO2="30841.28" CO="637.49" HC="3.66" NOx="14.32" PMx="0.77" fuel="13.26" electricity="0.00" noise="124.27" route="routeleft" type="cfm-fast" waiting="0.00" lane="left_0" pos="27.39" speed="7.43" angle="135.20" x="18.93" y="11.65"/>
        <vehicle id="cfm-slow_0" eclass="HBEFA3/PC_G_EU4" CO2="30595.03" CO="632.54" HC="3.63" NOx="14.20" PMx="0.76" fuel="13.15" electricity="0.00" noise="123.80" route="routebottom" type="cfm-slow" waiting="0.00" lane="bottom_0" pos="3.23" speed="7.42" angle="88.71" x="70.69" y="-4.58"/>
        <vehicle id="cfm-slow_1" eclass="HBEFA3/PC_G_EU4" CO2="30595.03" CO="632.54" HC="3.63" NOx="14.20" PMx="0.76" fuel="13.15" electricity="0.00" noise="123.80" route="routebottom" type="cfm-slow" waiting="0.00" lane="bottom_0" pos="19.06" speed="7.42" angle="60.12" x="102.35" y="7.01"/>
        <vehicle id="cfm-slow_2" eclass="HBEFA3/PC_G_EU4" CO2="30595.03" CO="632.54" HC="3.63" NOx="14.20" PMx="0.76" fuel="13.15" electricity="0.00" noise="123.80" route="routebottom" type="cfm-slow" waiting="0.00" lane="bottom_0" pos="34.89" speed="7.42" angle="31.76" x="124.67" y="32.28"/>
        <vehicle id="cfm-slow_3" eclass="HBEFA3/PC_G_EU4" CO2="30595.03" CO="632.54" HC="3.63" NOx="14.20" PMx="0.76" fuel="13.15" electricity="0.00" noise="123.80" route="routebottom" type="cfm-slow" waiting="0.00" lane="right_0" pos="0.73" speed="7.42" angle="3.15" x="132.24" y="65.32"/>
        <vehicle id="cfm-slow_4" eclass="HBEFA3/PC_G_EU4" CO2="30595.03" CO="632.54" HC="3.63" NOx="14.20" PMx="0.76" fuel="13.15" electricity="0.00" noise="123.80" route="routeright" type="cfm-slow" waiting="0.00" lane="right_0" pos="16.56" speed="7.42" angle="334.65" x="123.17" y="97.79"/>
        <vehicle id="cfm-slow_5" eclass="HBEFA3/PC_G_EU4" CO2="30595.03" CO="632.54" HC="3.63" NOx="14.20" PMx="0.76" fuel="13.15" electricity="0.00" noise="123.80" route="routeright" type="cfm-slow" waiting="0.00" lane="right_0" pos="32.39" speed="7.42" angle="306.26" x="99.73" y="122.02"/>
    </timestep>
    <timestep time="0.60">
        <vehicle id="cfm-fast_0" eclass="HBEFA3/PC_G_EU4" CO2="36588.47" CO="739.70" HC="4.27" NOx="16.99" PMx="0.92" fuel="15.73" electricity="0.00" noise="124.91" route="routeright" type="cfm-fast" waiting="0.00" lane="right_0" pos="49.12" speed="8.91" angle="276.16" x="65.66" y="132.23"/>
        <vehicle id="cfm-fast_1" eclass="HBEFA3/PC_G_EU4" CO2="36588.47" CO="739.70" HC="4.27" NOx="16.99" PMx="0.92" fuel="15.73" electricity="0.00" noise="124.91" route="routetop" type="cfm-fast" waiting="0.00" lane="top_0" pos="14.95" speed="8.91" angle="247.51" x="32.58" y="124.82"/>
        <vehicle id="cfm-fast_2" eclass="HBEFA3/PC_G_EU4" CO2="36588.47" CO="739.70" HC="4.27" NOx="16.99" PMx="0.92" fuel="15.73" electricity="0.00" noise="124.91" route="routetop" type="cfm-fast" waiting="0.00" lane="top_0" pos="30.79" speed="8.91" angle="219.12" x="7.19" y="102.63"/>
        <vehicle id="cfm-fast_3" eclass="HBEFA3/PC_G_EU4" CO2="36588.47" CO="739.70" HC="4.27" NOx="16.99" PMx="0.92" fuel="15.73" electricity="0.00" noise="124.91" route="routetop" type="cfm-fast" waiting="0.00" lane="top_0" pos="46.62" speed="8.91" angle="190.68" x="-4.54" y="71.02"/>
        <vehicle id="cfm-fast_4" eclass="HBEFA3/PC_G_EU4" CO2="36588.47" CO="739.70" HC="4.27" NOx="16.99" PMx="0.92" fuel="15.73" electricity="0.00" noise="124.91" route="routeleft" type="cfm-fast" waiting="0.00" lane="left_0" pos="12.45" speed="8.91" angle="162.06" x="0.26" y="37.46"/>
        <vehicle id="cfm-fast_5" eclass="HBEFA3/PC_G_EU4" CO2="36588.47" CO="739.70" HC="4.27" NOx="16.99" PMx="0.92" fuel="15.73" electricity="0.00" noise="124.91" route="routeleft" type="cfm-fast" waiting="0.00" lane="left_0" pos="28.29" speed="8.91" angle="133.60" x="20.40" y="10.42"/>
        <vehicle id="cfm-slow_0" eclass="HBEFA3/PC_G_EU4" CO2="32370.10" CO="654.57" HC="3.78" NOx="15.01" PMx="0.81" fuel="13.91" electricity="0.00" noise="117.94" route="routebottom" type="cfm-slow" waiting="0.00" lane="bottom_0" pos="4.10" speed="8.74" angle="87.15" x="72.56" y="-4.36"/>
        <vehicle id="cfm-slow_1" eclass="HBEFA3/PC_G_EU4" CO2="32370.10" CO="654.57" HC="3.78" NOx="15.01" PMx="0.81" fuel="13.91" electricity="0.00" noise="117.94" route="routebottom" type="cfm-slow" waiting="0.00" lane="bottom_0" pos="19.93" speed="8.74" angle="58.56" x="103.89" y="8.10"/>
        <vehicle id="cfm-slow_2" eclass="HBEFA3/PC_G_EU4" CO2="32370.10" CO="654.57" HC="3.78" NOx="15.01" PMx="0.81" fuel="13.91" electricity="0.00" noise="117.94" route="routebottom" type="cfm-slow" waiting="0.00" lane="bottom_0" pos="35.77" speed="8.74" angle="30.17" x="125.51" y="33.96"/>
        <vehicle id="cfm-slow_3" eclass="HBEFA3/PC_G_EU4" CO2="32370.10" CO="654.57" HC="3.78" NOx="15.01" PMx="0.81" fuel="13.91" electricity="0.00" noise="117.94" route="routebottom" type="cfm-slow" waiting="0.00" lane="right_0" pos="1.60" speed="8.74" angle="1.60" x="132.17" y="67.20"/>
        <vehicle id="cfm-slow_4" eclass="HBEFA3/PC_G_EU4" CO2="32370.10" CO="654.57" HC="3.78" NOx="15.01" PMx="0.81" fuel="13.91" electricity="0.00" noise="117.94" route="routeright" type="cfm-slow" waiting="0.00" lane="right_0" pos="17.43" speed="8.74" angle="333.11" x="122.21" y="99.41"/>
        <vehicle id="cfm-slow_5" eclass="HBEFA3/PC_G_EU4" CO2="32400.48" CO="655.19" HC="3.78" NOx="15.02" PMx="0.81" fuel="13.93" electricity="0.00" noise="118.00" route="routeright" type="cfm-slow" waiting="0.00" lane="right_0" pos="33.27" speed="8.74" angle="304.62" x="98.11" y="122.99"/>
    </timestep>
    <timestep time="0.70">
        <vehicle id="cfm-fast_0" eclass="HBEFA3/PC_G_EU4" CO2="42370.30" CO="844.47" HC="4.89" NOx="19.68" PMx="1.06" fuel="18.21" electricity="0.00" noise="125.56" route="routetop" type="cfm-fast" waiting="0.00" lane="top_0" pos="0.16" speed="10.40" angle="274.19" x="63.23" y="132.26"/>
        <vehicle id="cfm-fast_1" eclass="HBEFA3/PC_G_EU4" CO2="42370.30" CO="844.47" HC="4.89" NOx="19.68" PMx="1.06" fuel="18.21" electricity="0.00" noise="125.56" route="routetop" type="cfm-fast" waiting="0.00" lane="top_0" pos="15.99" speed="10.40" angle="245.66" x="30.60" y="123.77"/>
        <vehicle id="cfm-fast_2" eclass="HBEFA3/PC_G_EU4" CO2="42370.30" CO="844.47" HC="4.89" NOx="19.68" PMx="1.06" fuel="18.21" electricity="0.00" noise="125.56" route="routetop" type="cfm-fast" waiting="0.00" lane="top_0" pos="31.83" speed="10.40" angle="217.25" x="5.95" y="100.77"/>
        <vehicle id="cfm-fast_3" eclass="HBEFA3/PC_G_EU4" CO2="42370.30" CO="844.47" HC="4.89" NOx="19.68" PMx="1.06" fuel="18.21" electricity="0.00" noise="125.56" route="routetop" type="cfm-fast" waiting="0.00" lane="top_0" pos="47.66" speed="10.40" angle="188.82" x="-4.75" y="68.79"/>
        <vehicle id="cfm-fast_4" eclass="HBEFA3/PC_G_EU4" CO2="42370.30" CO="844.47" HC="4.89" NOx="19.68" PMx="1.06" fuel="18.21" electricity="0.00" noise="125.56" route="routeleft" type="cfm-fast" waiting="0.00" lane="left_0" pos="13.49" speed="10.40" angle="160.21" x="1.15" y="35.41"/>
        <vehicle id="cfm-fast_5" eclass="HBEFA3/PC_G_EU4" CO2="42370.30" CO="844.47" HC="4.89" NOx="19.68" PMx="1.06" fuel="18.21" electricity="0.00" noise="125.56" route="routeleft" type="cfm-fast" waiting="0.00" lane="left_0" pos="29.33" speed="10.40" angle="131.67" x="22.16" y="9.04"/>
        <vehicle id="cfm-slow_0" eclass="HBEFA3/PC_G_EU4" CO2="33127.20" CO="658.35" HC="3.81" NOx="15.33" PMx="0.82" fuel="14.24" electricity="0.00" noise="112.68" route="routebottom" type="cfm-slow" waiting="0.00" lane="bottom_0" pos="5.10" speed="9.94" angle="85.31" x="74.68" y="-4.07"/>
        <vehicle id="cfm-slow_1" eclass="HBEFA3/PC_G_EU4" CO2="33127.20" CO="658.35" HC="3.81" NOx="15.33" PMx="0.82" fuel="14.24" electricity="0.00" noise="112.68" route="routebottom" type="cfm-slow" waiting="0.00" lane="bottom_0" pos="20.93" speed="9.94" angle="56.80" x="105.60" y="9.37"/>
        <vehicle id="cfm-slow_2" eclass="HBEFA3/PC_G_EU4" CO2="33127.20" CO="658.35" HC="3.81" NOx="15.33" PMx="0.82" fuel="14.24" electricity="0.00" noise="112.68" route="routebottom" type="cfm-slow" waiting="0.00" lane="bottom_0" pos="36.76" speed="9.94" angle="28.31" x="126.40" y="35.91"/>
        <vehicle id="cfm-slow_3" eclass="HBEFA3/PC_G_EU4" CO2="33127.20" CO="658.35" HC="3.81" NOx="15.33" PMx="0.82" fuel="14.24" electricity="0.00" noise="112.68" route="routebottom" type="cfm-slow" waiting="0.00" lane="right_0" pos="2.60" speed="9.94" angle="359.84" x="132.04" y="69.34"/>
        <vehicle id="cfm-slow_4" eclass="HBEFA3/PC_G_EU4" CO2="33130.86" CO="658.42" HC="3.81" NOx="15.33" PMx="0.82" fuel="14.24" electricity="0.00" noise="112.68" route="routeright" type="cfm-slow" waiting="0.00" lane="right_0" pos="18.43" speed="9.94" angle="331.31" x="121.07" y="101.22"/>
        <vehicle id="cfm-slow_5" eclass="HBEFA3/PC_G_EU4" CO2="33657.08" CO="669.08" HC="3.88" NOx="15.58" PMx="0.84" fuel="14.47" electricity="0.00" noise="113.48" route="routeright" type="cfm-slow" waiting="0.00" lane="right_0" pos="34.26" speed="9.96" angle="302.84" x="96.24" y="124.03"/>
    </timestep>
    <timestep time="0.80">
        <vehicle id="cfm-fast_0" eclass="HBEFA3/PC_G_EU4" CO2="46250.56" CO="912.36" HC="5.30" NOx="21.48" PMx="1.16" fuel="19.88" electricity="0.00" noise="123.74" route="routetop" type="cfm-fast" waiting="0.00" lane="top_0" pos="1.34" speed="11.83" angle="272.07" x="60.69" y="132.21"/>