<?xml version="1.0" encoding="UTF-8"?>

<!-- generated on Thu Nov 24 16:49:20 2016 by SUMO Version 0.27.1
<?xml version="1.0" encoding="UTF-8"?>

<configuration xmlns:xsi="http://www.w3.org/2001/XMLSchema-instance" xsi:noNamespaceSchemaLocation="http://sumo.dlr.de/xsd/sumoConfiguration.xsd">

    <input>
        <net-file value="highway_files/leah-3/net/loopsim-840m2l-840m2l.net.xml"/>
        <route-files value="highway_files/leah-3/loopsim-840m2l-human011-fillgapmidpoint001-Sugiyama-sigma=0.900000-run=0.rou.xml"/>
        <additional-files value="highway_files/leah-3/loopsim-840m2l-human011-fillgapmidpoint001-Sugiyama-sigma=0.900000-run=0.add.xml"/>
    </input>

    <output>
        <netstate-dump value="highway_files/leah-3/data/loopsim-840m2l-human011-fillgapmidpoint001-Sugiyama-sigma=0.900000-run=0.netstate.xml"/>
        <emission-output value="highway_files/leah-3/data/loopsim-840m2l-human011-fillgapmidpoint001-Sugiyama-sigma=0.900000-run=0.emission.xml"/>
        <amitran-output value="highway_files/leah-3/data/loopsim-840m2l-human011-fillgapmidpoint001-Sugiyama-sigma=0.900000-run=0.amitran.xml"/>
        <lanechange-output value="highway_files/leah-3/data/loopsim-840m2l-human011-fillgapmidpoint001-Sugiyama-sigma=0.900000-run=0.lanechange.xml"/>
    </output>

    <time>
        <begin value="0"/>
        <end value="3000"/>
    </time>

    <traci_server>
        <remote-port value="8873"/>
    </traci_server>

    <gui_only>
        <gui-settings-file value="highway_files/leah-3/loopsim-840m2l-human011-fillgapmidpoint001-Sugiyama-sigma=0.900000-run=0.gui.cfg"/>
    </gui_only>

</configuration>
-->

<netstate xmlns:xsi="http://www.w3.org/2001/XMLSchema-instance" xsi:noNamespaceSchemaLocation="http://sumo.dlr.de/xsd/netstate_file.xsd">
    <timestep time="0.00">
        <edge id="bottom">
            <lane id="bottom_0">
                <vehicle id="0" pos="0.00" speed="20.00"/>
                <vehicle id="1" pos="70.00" speed="20.00"/>
                <vehicle id="2" pos="140.00" speed="20.00"/>
            </lane>
            <lane id="bottom_1"/>
        </edge>
        <edge id="left">
            <lane id="left_0">
                <vehicle id="9" pos="0.00" speed="20.00"/>
                <vehicle id="10" pos="70.00" speed="20.00"/>
                <vehicle id="11" pos="140.00" speed="20.00"/>
            </lane>
            <lane id="left_1"/>
        </edge>
        <edge id="right">
            <lane id="right_0">
                <vehicle id="3" pos="0.00" speed="20.00"/>
                <vehicle id="4" pos="70.00" speed="20.00"/>
                <vehicle id="5" pos="140.00" speed="20.00"/>
            </lane>
            <lane id="right_1"/>
        </edge>
        <edge id="top">
            <lane id="top_0">
                <vehicle id="6" pos="0.00" speed="20.00"/>
                <vehicle id="7" pos="70.00" speed="20.00"/>
                <vehicle id="8" pos="140.00" speed="20.00"/>
            </lane>
            <lane id="top_1"/>
        </edge>
    </timestep>
    <timestep time="1.00">
        <edge id="bottom">
            <lane id="bottom_0">
                <vehicle id="0" pos="22.60" speed="22.60"/>
                <vehicle id="1" pos="89.13" speed="19.13"/>
                <vehicle id="2" pos="162.60" speed="22.60"/>
            </lane>
            <lane id="bottom_1"/>
        </edge>
        <edge id="left">
            <lane id="left_0">
                <vehicle id="9" pos="15.50" speed="15.50"/>
                <vehicle id="10" pos="92.60" speed="22.60"/>
                <vehicle id="11" pos="155.50" speed="15.50"/>
            </lane>
            <lane id="left_1"/>
        </edge>
        <edge id="right">
            <lane id="right_0">
                <vehicle id="3" pos="17.30" speed="17.30"/>
                <vehicle id="4" pos="85.50" speed="15.50"/>
                <vehicle id="5" pos="155.50" speed="15.50"/>
            </lane>
            <lane id="right_1"/>
        </edge>
        <edge id="top">
            <lane id="top_0">
                <vehicle id="6" pos="21.58" speed="21.58"/>
                <vehicle id="7" pos="85.50" speed="15.50"/>
                <vehicle id="8" pos="156.96" speed="16.96"/>
            </lane>
            <lane id="top_1"/>
        </edge>
    </timestep>
    <timestep time="2.00">
        <edge id="bottom">
            <lane id="bottom_0">
                <vehicle id="1" pos="103.76" speed="14.63"/>
                <vehicle id="2" pos="183.41" speed="20.81"/>
            </lane>
            <lane id="bottom_1">
                <vehicle id="0" pos="47.80" speed="25.20"/>
            </lane>
        </edge>
        <edge id="left">
            <lane id="left_0">
                <vehicle id="9" pos="26.50" speed="11.00"/>
                <vehicle id="11" pos="170.85" speed="15.35"/>
            </lane>
            <lane id="left_1">
                <vehicle id="10" pos="116.33" speed="23.73"/>
            </lane>
        </edge>
        <edge id="right">
            <lane id="right_0">
                <vehicle id="3" pos="37.21" speed="19.90"/>
                <vehicle id="4" pos="96.50" speed="11.00"/>
                <vehicle id="5" pos="166.50" speed="11.00"/>
            </lane>
            <lane id="right_1"/>
        </edge>
        <edge id="top">
            <lane id="top_0">
                <vehicle id="6" pos="45.48" speed="23.90"/>
                <vehicle id="7" pos="101.14" speed="15.64"/>
                <vehicle id="8" pos="169.41" speed="12.46"/>
            </lane>
            <lane id="top_1"/>
        </edge>
    </timestep>
    <timestep time="3.00">
        <edge id="bottom">
            <lane id="bottom_0">
                <vehicle id="1" pos="113.88" speed="10.13"/>
                <vehicle id="2" pos="206.82" speed="23.41"/>
            </lane>
            <lane id="bottom_1">
                <vehicle id="0" pos="75.60" speed="27.80"/>
            </lane>
        </edge>
        <edge id="left">
            <lane id="left_0">
                <vehicle id="9" pos="33.00" speed="6.50"/>
                <vehicle id="11" pos="188.79" speed="17.95"/>
            </lane>
            <lane id="left_1">
                <vehicle id="10" pos="142.67" speed="26.33"/>
            </lane>
        </edge>
        <edge id="right">
            <lane id="right_0">
                <vehicle id="4" pos="103.00" speed="6.50"/>
                <vehicle id="5" pos="174.05" speed="7.55"/>
            </lane>
            <lane id="right_1">
                <vehicle id="3" pos="58.27" speed="21.06"/>
            </lane>
        </edge>
        <edge id="top">
            <lane id="top_0">
                <vehicle id="7" pos="119.33" speed="18.18"/>
                <vehicle id="8" pos="180.06" speed="10.65"/>
            </lane>
            <lane id="top_1">
                <vehicle id="6" pos="68.08" speed="22.60"/>
            </lane>
        </edge>
    </timestep>
    <timestep time="4.00">
        <edge id="bottom">
            <lane id="bottom_0">
                <vehicle id="1" pos="126.61" speed="12.73"/>
            </lane>
            <lane id="bottom_1">
                <vehicle id="0" pos="106.00" speed="30.40"/>
            </lane>
        </edge>
        <edge id="left">
            <lane id="left_0">
                <vehicle id="9" pos="35.00" speed="2.00"/>
                <vehicle id="11" pos="203.59" speed="14.80"/>
            </lane>
            <lane id="left_1">
                <vehicle id="10" pos="171.60" speed="28.93"/>
            </lane>
        </edge>
        <edge id="right">
            <lane id="right_0">
                <vehicle id="2" pos="22.84" speed="26.01"/>
                <vehicle id="4" pos="105.00" speed="2.00"/>
                <vehicle id="5" pos="177.09" speed="3.05"/>
            </lane>
            <lane id="right_1">
                <vehicle id="3" pos="81.92" speed="23.66"/>
            </lane>
        </edge>
        <edge id="top">
            <lane id="top_0">
                <vehicle id="7" pos="133.01" speed="13.68"/>
                <vehicle id="8" pos="191.36" speed="11.30"/>
            </lane>
            <lane id="top_1">
                <vehicle id="6" pos="92.77" speed="24.68"/>
            </lane>
        </edge>
    </timestep>
    <timestep time="5.00">
        <edge id="bottom">
            <lane id="bottom_0">
                <vehicle id="11" pos="10.99" speed="17.40"/>
                <vehicle id="1" pos="138.61" speed="12.00"/>
            </lane>
            <lane id="bottom_1">
                <vehicle id="0" pos="139.00" speed="33.00"/>
            </lane>
        </edge>
        <edge id="left">
            <lane id="left_0">
                <vehicle id="9" pos="35.00" speed="0.00"/>
            </lane>
            <lane id="left_1">
                <vehicle id="10" pos="203.13" speed="31.53"/>
            </lane>
        </edge>
        <edge id="right">
            <lane id="right_0">
                <vehicle id="4" pos="105.00" speed="0.00"/>
                <vehicle id="5" pos="177.10" speed="0.00"/>
            </lane>
            <lane id="right_1">
                <vehicle id="2" pos="44.35" speed="21.51"/>
                <vehicle id="3" pos="108.18" speed="26.26"/>
            </lane>
        </edge>
        <edge id="top">
            <lane id="top_0">
                <vehicle id="7" pos="142.19" speed="9.18"/>
                <vehicle id="8" pos="198.67" speed="7.31"/>
            </lane>
            <lane id="top_1">
                <vehicle id="6" pos="115.30" speed="22.53"/>
            </lane>
        </edge>
    </timestep>
    <timestep time="6.00">
        <edge id="bottom">
            <lane id="bottom_0">
                <vehicle id="11" pos="30.98" speed="20.00"/>
                <vehicle id="1" pos="149.69" speed="11.08"/>
            </lane>
            <lane id="bottom_1">
                <vehicle id="10" pos="27.27" speed="34.13"/>
                <vehicle id="0" pos="173.36" speed="34.36"/>
            </lane>
        </edge>
        <edge id="left">
            <lane id="left_0">
                <vehicle id="9" pos="35.00" speed="0.00"/>
            </lane>
            <lane id="left_1"/>
        </edge>
        <edge id="right">
            <lane id="right_0">
                <vehicle id="4" pos="105.00" speed="0.00"/>
                <vehicle id="5" pos="177.10" speed="0.00"/>
            </lane>
            <lane id="right_1">
                <vehicle id="2" pos="61.36" speed="17.01"/>
                <vehicle id="3" pos="137.04" speed="28.86"/>
            </lane>
        </edge>
        <edge id="top">
            <lane id="top_0">
                <vehicle id="7" pos="149.54" speed="7.35"/>
                <vehicle id="8" pos="204.11" speed="5.45"/>
            </lane>
            <lane id="top_1">
                <vehicle id="6" pos="134.34" speed="19.05"/>
            </lane>
        </edge>
    </timestep>
    <timestep time="7.00">
        <edge id="bottom">
            <lane id="bottom_0">
                <vehicle id="11" pos="46.48" speed="15.50"/>
                <vehicle id="1" pos="156.28" speed="6.58"/>
            </lane>
            <lane id="bottom_1">
                <vehicle id="10" pos="62.27" speed="35.00"/>
                <vehicle id="0" pos="203.22" speed="29.86"/>
            </lane>
        </edge>
        <edge id="left">
            <lane id="left_0">
                <vehicle id="8" pos="2.16" speed="8.05"/>
                <vehicle id="9" pos="35.00" speed="0.00"/>
            </lane>
            <lane id="left_1"/>
        </edge>
        <edge id="right">
            <lane id="right_0">
                <vehicle id="4" pos="105.00" speed="0.00"/>
                <vehicle id="5" pos="179.70" speed="2.60"/>
            </lane>
            <lane id="right_1">
                <vehicle id="2" pos="80.97" speed="19.61"/>
                <vehicle id="3" pos="168.50" speed="31.46"/>
            </lane>
        </edge>
        <edge id="top">
            <lane id="top_0">
                <vehicle id="7" pos="152.39" speed="2.85"/>
            </lane>
            <lane id="top_1">
                <vehicle id="6" pos="150.18" speed="15.83"/>
            </lane>
        </edge>
    </timestep>
    <timestep time="8.00">
        <edge id="bottom">
            <lane id="bottom_0">
                <vehicle id="11" pos="64.57" speed="18.10"/>
                <vehicle id="1" pos="158.36" speed="2.08"/>
            </lane>
            <lane id="bottom_1">
                <vehicle id="10" pos="92.77" speed="30.50"/>
            </lane>
        </edge>
        <edge id="left">
            <lane id="left_0">
                <vehicle id="8" pos="9.43" speed="7.27"/>
                <vehicle id="9" pos="35.00" speed="0.00"/>
            </lane>
            <lane id="left_1"/>
        </edge>
        <edge id="right">
            <lane id="right_0">
                <vehicle id="4" pos="105.00" speed="0.00"/>
                <vehicle id="5" pos="179.70" speed="0.00"/>
            </lane>
            <lane id="right_1">
                <vehicle id="0" pos="22.97" speed="29.74"/>
                <vehicle id="2" pos="96.86" speed="15.88"/>
                <vehicle id="3" pos="202.01" speed="33.51"/>
            </lane>
        </edge>
        <edge id="top">
            <lane id="top_0">
                <vehicle id="7" pos="152.39" speed="0.00"/>
            </lane>
            <lane id="top_1">
                <vehicle id="6" pos="168.61" speed="18.43"/>
            </lane>
        </edge>
    </timestep>
    <timestep time="9.00">
        <edge id="bottom">
            <lane id="bottom_0">
                <vehicle id="11" pos="78.41" speed="13.84"/>
                <vehicle id="1" pos="158.36" speed="0.00"/>
            </lane>
            <lane id="bottom_1">
                <vehicle id="10" pos="125.87" speed="33.10"/>
            </lane>
        </edge>
        <edge id="left">
            <lane id="left_0">
                <vehicle id="9" pos="35.00" speed="0.00"/>
            </lane>
            <lane id="left_1">
                <vehicle id="8" pos="19.30" speed="9.87"/>
            </lane>
        </edge>
        <edge id="right">
            <lane id="right_0">
                <vehicle id="4" pos="105.00" speed="0.00"/>
                <vehicle id="5" pos="179.70" speed="0.00"/>
            </lane>
            <lane id="right_1">
                <vehicle id="0" pos="48.72" speed="25.76"/>
                <vehicle id="2" pos="108.24" speed="11.38"/>
            </lane>
        </edge>
        <edge id="top">
            <lane id="top_0">
                <vehicle id="7" pos="152.39" speed="0.00"/>
            </lane>
            <lane id="top_1">
                <vehicle id="3" pos="27.01" speed="35.00"/>
                <vehicle id="6" pos="184.85" speed="16.24"/>
            </lane>
        </edge>
    </timestep>
    <timestep time="10.00">
        <edge id="bottom">
            <lane id="bottom_0">
                <vehicle id="11" pos="87.74" speed="9.34"/>
                <vehicle id="1" pos="158.46" speed="0.09"/>
            </lane>
            <lane id="bottom_1">
                <vehicle id="10" pos="154.47" speed="28.60"/>
            </lane>
        </edge>
        <edge id="left">
            <lane id="left_0">
                <vehicle id="9" pos="35.00" speed="0.00"/>
            </lane>
            <lane id="left_1">
                <vehicle id="8" pos="31.18" speed="11.88"/>
            </lane>
        </edge>
        <edge id="right">
            <lane id="right_0">
                <vehicle id="4" pos="105.00" speed="0.00"/>
                <vehicle id="5" pos="179.70" speed="0.00"/>
            </lane>
            <lane id="right_1">
                <vehicle id="0" pos="69.98" speed="21.26"/>
                <vehicle id="2" pos="115.13" speed="6.88"/>
            </lane>
        </edge>
        <edge id="top">
            <lane id="top_0">
                <vehicle id="7" pos="154.66" speed="2.27"/>
            </lane>
            <lane id="top_1">
                <vehicle id="3" pos="57.51" speed="30.50"/>
                <vehicle id="6" pos="202.39" speed="17.55"/>
            </lane>
        </edge>
    </timestep>
    <timestep time="11.00">
        <edge id="bottom">
            <lane id="bottom_0">
                <vehicle id="11" pos="92.58" speed="4.84"/>
                <vehicle id="1" pos="158.46" speed="0.00"/>
            </lane>
            <lane id="bottom_1">
                <vehicle id="10" pos="178.57" speed="24.10"/>
            </lane>
        </edge>
        <edge id="left">
            <lane id="left_0">
                <vehicle id="9" pos="35.00" speed="0.00"/>
            </lane>
            <lane id="left_1">
                <vehicle id="6" pos="8.37" speed="15.98"/>
                <vehicle id="8" pos="45.67" speed="14.48"/>
            </lane>
        </edge>
        <edge id="right">
            <lane id="right_0">
                <vehicle id="4" pos="105.00" speed="0.00"/>
                <vehicle id="5" pos="179.70" speed="0.00"/>
            </lane>
            <lane id="right_1">
                <vehicle id="0" pos="86.74" speed="16.76"/>
                <vehicle id="2" pos="122.72" speed="7.59"/>
            </lane>
        </edge>
        <edge id="top">
            <lane id="top_0">
                <vehicle id="7" pos="154.66" speed="0.00"/>
            </lane>
            <lane id="top_1">
                <vehicle id="3" pos="83.51" speed="26.00"/>
            </lane>
        </edge>
    </timestep>
    <timestep time="12.00">
        <edge id="bottom">
            <lane id="bottom_0">
                <vehicle id="11" pos="94.58" speed="2.00"/>
                <vehicle id="1" pos="158.46" speed="0.00"/>
            </lane>
            <lane id="bottom_1">
                <vehicle id="10" pos="202.33" speed="23.77"/>
            </lane>
        </edge>
        <edge id="left">
            <lane id="left_0">
                <vehicle id="9" pos="35.00" speed="0.00"/>
            </lane>
            <lane id="left_1">
                <vehicle id="6" pos="26.62" speed="18.25"/>
                <vehicle id="8" pos="56.14" speed="10.48"/>
            </lane>
        </edge>
        <edge id="right">
            <lane id="right_0">
                <vehicle id="4" pos="105.00" speed="0.00"/>
                <vehicle id="5" pos="179.70" speed="0.00"/>
            </lane>
            <lane id="right_1">
                <vehicle id="0" pos="101.38" speed="14.64"/>
                <vehicle id="2" pos="125.81" speed="3.09"/>
            </lane>
        </edge>
        <edge id="top">
            <lane id="top_0">
                <vehicle id="7" pos="154.66" speed="0.00"/>
            </lane>
            <lane id="top_1">
                <vehicle id="3" pos="112.11" speed="28.60"/>
            </lane>
        </edge>
    </timestep>
    <timestep time="13.00">
        <edge id="bottom">
            <lane id="bottom_0">
                <vehicle id="11" pos="94.58" speed="0.00"/>
                <vehicle id="1" pos="158.46" speed="0.00"/>
            </lane>
            <lane id="bottom_1"/>
        </edge>
        <edge id="left">
            <lane id="left_0">
                <vehicle id="9" pos="35.00" speed="0.00"/>
            </lane>
            <lane id="left_1">
                <vehicle id="6" pos="40.37" speed="13.75"/>
                <vehicle id="8" pos="64.62" speed="8.47"/>
            </lane>
        </edge>
        <edge id="right">
            <lane id="right_0">
                <vehicle id="4" pos="105.00" speed="0.00"/>
                <vehicle id="5" pos="179.70" speed="0.00"/>
            </lane>
            <lane id="right_1">
                <vehicle id="10" pos="17.58" speed="25.25"/>
                <vehicle id="0" pos="111.52" speed="10.14"/>
                <vehicle id="2" pos="125.81" speed="0.00"/>
            </lane>
        </edge>
        <edge id="top">
            <lane id="top_0">
                <vehicle id="7" pos="154.66" speed="0.00"/>
            </lane>
            <lane id="top_1">
                <vehicle id="3" pos="143.31" speed="31.20"/>
            </lane>
        </edge>
    </timestep>
    <timestep time="14.00">
        <edge id="bottom">
            <lane id="bottom_0">
                <vehicle id="11" pos="94.58" speed="0.00"/>
                <vehicle id="1" pos="158.46" speed="0.00"/>
            </lane>
            <lane id="bottom_1"/>
        </edge>
        <edge id="left">
            <lane id="left_0">
                <vehicle id="9" pos="35.00" speed="0.00"/>
            </lane>
            <lane id="left_1">
                <vehicle id="6" pos="51.78" speed="11.41"/>
                <vehicle id="8" pos="75.69" speed="11.07"/>
            </lane>
        </edge>
        <edge id="right">
            <lane id="right_0">
                <vehicle id="4" pos="105.00" speed="0.00"/>
                <vehicle id="5" pos="179.70" speed="0.00"/>
            </lane>
            <lane id="right_1">
                <vehicle id="10" pos="39.20" speed="21.62"/>
                <vehicle id="0" pos="117.17" speed="5.64"/>
                <vehicle id="2" pos="125.81" speed="0.00"/>
            </lane>
        </edge>
        <edge id="top">
            <lane id="top_0">
                <vehicle id="7" pos="154.66" speed="0.00"/>
            </lane>
            <lane id="top_1">
                <vehicle id="3" pos="173.07" speed="29.76"/>
            </lane>
        </edge>
    </timestep>
    <timestep time="15.00">
        <edge id="bottom">
            <lane id="bottom_0">
                <vehicle id="11" pos="94.58" speed="0.00"/>
                <vehicle id="1" pos="158.46" speed="0.00"/>
            </lane>
            <lane id="bottom_1"/>
        </edge>
        <edge id="left">
            <lane id="left_0">
                <vehicle id="9" pos="35.00" speed="0.00"/>
            </lane>
            <lane id="left_1">
                <vehicle id="6" pos="62.23" speed="10.46"/>
                <vehicle id="8" pos="82.27" speed="6.57"/>
            </lane>
        </edge>
        <edge id="right">
            <lane id="right_0">
                <vehicle id="4" pos="105.00" speed="0.00"/>
                <vehicle id="5" pos="179.70" speed="0.00"/>
            </lane>
            <lane id="right_1">
                <vehicle id="10" pos="56.33" speed="17.12"/>
                <vehicle id="0" pos="118.31" speed="1.14"/>
                <vehicle id="2" pos="125.81" speed="0.00"/>
            </lane>
        </edge>
        <edge id="top">
            <lane id="top_0">
                <vehicle id="7" pos="154.66" speed="0.00"/>
            </lane>
            <lane id="top_1">
                <vehicle id="3" pos="199.41" speed="26.34"/>
            </lane>
        </edge>
    </timestep>
    <timestep time="16.00">
        <edge id="bottom">
            <lane id="bottom_0">
                <vehicle id="11" pos="94.58" speed="0.00"/>
                <vehicle id="1" pos="158.85" speed="0.39"/>
            </lane>
            <lane id="bottom_1"/>
        </edge>
        <edge id="left">
            <lane id="left_0">
                <vehicle id="9" pos="35.00" speed="0.00"/>
            </lane>
            <lane id="left_1">
                <vehicle id="3" pos="12.78" speed="23.37"/>
                <vehicle id="6" pos="71.60" speed="9.37"/>
                <vehicle id="8" pos="91.04" speed="8.77"/>
            </lane>
        </edge>
        <edge id="right">
            <lane id="right_0">
                <vehicle id="4" pos="105.00" speed="0.00"/>
                <vehicle id="5" pos="179.70" speed="0.00"/>
            </lane>
            <lane id="right_1">
                <vehicle id="10" pos="68.95" speed="12.62"/>
                <vehicle id="0" pos="118.31" speed="0.00"/>
                <vehicle id="2" pos="125.81" speed="0.00"/>
            </lane>
        </edge>
        <edge id="top">
            <lane id="top_0">
                <vehicle id="7" pos="154.66" speed="0.00"/>
            </lane>
            <lane id="top_1"/>
        </edge>
    </timestep>
    <timestep time="17.00">
        <edge id="bottom">
            <lane id="bottom_0">
                <vehicle id="11" pos="94.58" speed="0.00"/>
                <vehicle id="1" pos="158.85" speed="0.00"/>
            </lane>
            <lane id="bottom_1"/>
        </edge>
        <edge id="left">
            <lane id="left_0">
                <vehicle id="9" pos="35.00" speed="0.00"/>
                <vehicle id="8" pos="95.30" speed="4.27"/>
            </lane>
            <lane id="left_1">
                <vehicle id="3" pos="33.09" speed="20.31"/>
                <vehicle id="6" pos="80.73" speed="9.13"/>
            </lane>
        </edge>
        <edge id="right">
            <lane id="right_0">
                <vehicle id="4" pos="107.60" speed="2.60"/>
                <vehicle id="0" pos="118.31" speed="0.00"/>
                <vehicle id="5" pos="179.70" speed="0.00"/>
            </lane>
            <lane id="right_1">
                <vehicle id="10" pos="84.17" speed="15.22"/>
                <vehicle id="2" pos="125.81" speed="0.00"/>
            </lane>
        </edge>
        <edge id="top">
            <lane id="top_0">
                <vehicle id="7" pos="154.66" speed="0.00"/>
            </lane>
            <lane id="top_1"/>
        </edge>
    </timestep>
    <timestep time="18.00">
        <edge id="bottom">
            <lane id="bottom_0">
                <vehicle id="11" pos="94.58" speed="0.00"/>
                <vehicle id="1" pos="158.85" speed="0.00"/>
            </lane>
            <lane id="bottom_1"/>
        </edge>
        <edge id="left">
            <lane id="left_0">
                <vehicle id="9" pos="35.00" speed="0.00"/>
                <vehicle id="8" pos="95.31" speed="0.00"/>
            </lane>
            <lane id="left_1">
                <vehicle id="3" pos="51.06" speed="17.97"/>
                <vehicle id="6" pos="92.46" speed="11.73"/>
            </lane>
        </edge>
        <edge id="right">
            <lane id="right_0">
                <vehicle id="4" pos="108.94" speed="1.34"/>
                <vehicle id="0" pos="119.64" speed="1.32"/>
                <vehicle id="5" pos="182.30" speed="2.60"/>
            </lane>
            <lane id="right_1">
                <vehicle id="10" pos="94.89" speed="10.72"/>
                <vehicle id="2" pos="125.81" speed="0.00"/>
            </lane>
        </edge>
        <edge id="top">
            <lane id="top_0">
                <vehicle id="7" pos="154.66" speed="0.00"/>
            </lane>
            <lane id="top_1"/>
        </edge>
    </timestep>
    <timestep time="19.00">
        <edge id="bottom">
            <lane id="bottom_0">
                <vehicle id="11" pos="94.58" speed="0.00"/>
                <vehicle id="1" pos="158.85" speed="0.00"/>
            </lane>
            <lane id="bottom_1"/>
        </edge>
        <edge id="left">
            <lane id="left_0">
                <vehicle id="9" pos="35.00" speed="0.00"/>
                <vehicle id="8" pos="95.31" speed="0.00"/>
            </lane>
            <lane id="left_1">
                <vehicle id="3" pos="68.78" speed="17.71"/>
                <vehicle id="6" pos="100.67" speed="8.21"/>
            </lane>
        </edge>
        <edge id="right">
            <lane id="right_0">
                <vehicle id="4" pos="108.94" speed="0.00"/>
                <vehicle id="0" pos="123.56" speed="3.92"/>
                <vehicle id="5" pos="184.16" speed="1.86"/>
            </lane>
            <lane id="right_1">
                <vehicle id="10" pos="107.20" speed="12.31"/>
                <vehicle id="2" pos="128.41" speed="2.60"/>
            </lane>
        </edge>
        <edge id="top">
            <lane id="top_0">
                <vehicle id="7" pos="154.66" speed="0.00"/>
            </lane>
            <lane id="top_1"/>
        </edge>
    </timestep>
    <timestep time="20.00">
        <edge id="bottom">
            <lane id="bottom_0">
                <vehicle id="11" pos="94.58" speed="0.00"/>
                <vehicle id="1" pos="158.85" speed="0.00"/>
            </lane>
            <lane id="bottom_1"/>
        </edge>
        <edge id="left">
            <lane id="left_0">
                <vehicle id="9" pos="35.00" speed="0.00"/>
                <vehicle id="8" pos="95.31" speed="0.00"/>
            </lane>
            <lane id="left_1">
                <vehicle id="3" pos="82.55" speed="13.78"/>
                <vehicle id="6" pos="107.20" speed="6.54"/>
            </lane>
        </edge>
        <edge id="right">
            <lane id="right_0">
                <vehicle id="4" pos="111.54" speed="2.60"/>
                <vehicle id="0" pos="130.08" speed="6.52"/>
                <vehicle id="5" pos="184.16" speed="0.00"/>
            </lane>
            <lane id="right_1">
                <vehicle id="10" pos="116.27" speed="9.07"/>
                <vehicle id="2" pos="133.06" speed="4.65"/>
            </lane>
        </edge>
        <edge id="top">
            <lane id="top_0">
                <vehicle id="7" pos="156.09" speed="1.43"/>
            </lane>
            <lane id="top_1"/>
        </edge>
    </timestep>
    <timestep time="21.00">
        <edge id="bottom">
            <lane id="bottom_0">
                <vehicle id="11" pos="94.58" speed="0.00"/>
                <vehicle id="1" pos="158.85" speed="0.00"/>
            </lane>
            <lane id="bottom_1"/>
        </edge>
        <edge id="left">
            <lane id="left_0">
                <vehicle id="9" pos="35.00" speed="0.00"/>
                <vehicle id="8" pos="95.31" speed="0.00"/>