<?xml version="1.0" encoding="UTF-8"?>

<!-- generated on Thu Nov 24 16:49:20 2016 by SUMO Version 0.27.1
<?xml version="1.0" encoding="UTF-8"?>

<configuration xmlns:xsi="http://www.w3.org/2001/XMLSchema-instance" xsi:noNamespaceSchemaLocation="http://sumo.dlr.de/xsd/sumoConfiguration.xsd">

    <input>
        <net-file value="highway_files/leah-3/net/loopsim-840m2l-840m2l.net.xml"/>
        <route-files value="highway_files/leah-3/loopsim-840m2l-human011-fillgapmidpoint001-Sugiyama-sigma=0.900000-run=0.rou.xml"/>
        <additional-files value="highway_files/leah-3/loopsim-840m2l-human011-fillgapmidpoint001-Sugiyama-sigma=0.900000-run=0.add.xml"/>
    </input>

    <output>
        <netstate-dump value="highway_files/leah-3/data/loopsim-840m2l-human011-fillgapmidpoint001-Sugiyama-sigma=0.900000-run=0.netstate.xml"/>
        <emission-output value="highway_files/leah-3/data/loopsim-840m2l-human011-fillgapmidpoint001-Sugiyama-sigma=0.900000-run=0.emission.xml"/>
        <amitran-output value="highway_files/leah-3/data/loopsim-840m2l-human011-fillgapmidpoint001-Sugiyama-sigma=0.900000-run=0.amitran.xml"/>
        <lanechange-output value="highway_files/leah-3/data/loopsim-840m2l-human011-fillgapmidpoint001-Sugiyama-sigma=0.900000-run=0.lanechange.xml"/>
    </output>

    <time>
        <begin value="0"/>
        <end value="3000"/>
    </time>

    <traci_server>
        <remote-port value="8873"/>
    </traci_server>

    <gui_only>
        <gui-settings-file value="highway_files/leah-3/loopsim-840m2l-human011-fillgapmidpoint001-Sugiyama-sigma=0.900000-run=0.gui.cfg"/>
    </gui_only>

</configuration>
-->

<emission-export xmlns:xsi="http://www.w3.org/2001/XMLSchema-instance" xsi:noNamespaceSchemaLocation="http://sumo.dlr.de/xsd/emission_file.xsd">
    <timestep time="0.00">
        <vehicle id="0" eclass="HBEFA2/P_7_7" CO2="3106.68" CO="15.93" HC="0.57" NOx="5.80" PMx="0.23" fuel="1.24" electricity="0.00" noise="68.55" route="routebottom" type="human" waiting="0.00" lane="bottom_0" pos="0.00" speed="20.00" angle="91.14" x="267.43" y="-4.95"/>
        <vehicle id="1" eclass="HBEFA2/P_7_7" CO2="3106.68" CO="15.93" HC="0.57" NOx="5.80" PMx="0.23" fuel="1.24" electricity="0.00" noise="68.55" route="routebottom" type="human" waiting="0.00" lane="bottom_0" pos="70.00" speed="20.00" angle="61.18" x="403.57" y="31.55"/>
        <vehicle id="10" eclass="HBEFA2/P_7_7" CO2="3106.68" CO="15.93" HC="0.57" NOx="5.80" PMx="0.23" fuel="1.24" electricity="0.00" noise="68.55" route="routeleft" type="human" waiting="0.00" lane="left_0" pos="70.00" speed="20.00" angle="151.19" x="31.54" y="131.21"/>
        <vehicle id="11" eclass="HBEFA2/P_7_7" CO2="3106.68" CO="15.93" HC="0.57" NOx="5.80" PMx="0.23" fuel="1.24" electricity="0.00" noise="68.55" route="routeleft" type="human" waiting="0.00" lane="left_0" pos="140.00" speed="20.00" angle="121.14" x="131.21" y="31.54"/>
        <vehicle id="2" eclass="HBEFA2/P_7_7" CO2="3106.68" CO="15.93" HC="0.57" NOx="5.80" PMx="0.23" fuel="1.24" electricity="0.00" noise="68.55" route="routebottom" type="human" waiting="0.00" lane="bottom_0" pos="140.00" speed="20.00" angle="31.14" x="503.23" y="131.22"/>
        <vehicle id="3" eclass="HBEFA2/P_7_7" CO2="3106.68" CO="15.93" HC="0.57" NOx="5.80" PMx="0.23" fuel="1.24" electricity="0.00" noise="68.55" route="routeright" type="human" waiting="0.00" lane="right_0" pos="0.00" speed="20.00" angle="1.15" x="539.71" y="267.39"/>
        <vehicle id="4" eclass="HBEFA2/P_7_7" CO2="3106.68" CO="15.93" HC="0.57" NOx="5.80" PMx="0.23" fuel="1.24" electricity="0.00" noise="68.55" route="routeright" type="human" waiting="0.00" lane="right_0" pos="70.00" speed="20.00" angle="331.14" x="503.22" y="403.55"/>
        <vehicle id="5" eclass="HBEFA2/P_7_7" CO2="3106.68" CO="15.93" HC="0.57" NOx="5.80" PMx="0.23" fuel="1.24" electricity="0.00" noise="68.55" route="routeright" type="human" waiting="0.00" lane="right_0" pos="140.00" speed="20.00" angle="301.14" x="403.55" y="503.22"/>
        <vehicle id="6" eclass="HBEFA2/P_7_7" CO2="3106.68" CO="15.93" HC="0.57" NOx="5.80" PMx="0.23" fuel="1.24" electricity="0.00" noise="68.55" route="routetop" type="human" waiting="0.00" lane="top_0" pos="0.00" speed="20.00" angle="271.15" x="267.37" y="539.71"/>
        <vehicle id="7" eclass="HBEFA2/P_7_7" CO2="3106.68" CO="15.93" HC="0.57" NOx="5.80" PMx="0.23" fuel="1.24" electricity="0.00" noise="68.55" route="routetop" type="human" waiting="0.00" lane="top_0" pos="70.00" speed="20.00" angle="241.14" x="131.21" y="503.22"/>
        <vehicle id="8" eclass="HBEFA2/P_7_7" CO2="3106.68" CO="15.93" HC="0.57" NOx="5.80" PMx="0.23" fuel="1.24" electricity="0.00" noise="68.55" route="routetop" type="human" waiting="0.00" lane="top_0" pos="140.00" speed="20.00" angle="211.14" x="31.54" y="403.55"/>
        <vehicle id="9" eclass="HBEFA2/P_7_7" CO2="3106.68" CO="15.93" HC="0.57" NOx="5.80" PMx="0.23" fuel="1.24" electricity="0.00" noise="68.55" route="routeleft" type="human" waiting="0.00" lane="left_0" pos="0.00" speed="20.00" angle="181.15" x="-4.95" y="267.37"/>
    </timestep>
    <timestep time="1.00">
        <vehicle id="0" eclass="HBEFA2/P_7_7" CO2="16527.44" CO="332.22" HC="5.96" NOx="39.30" PMx="2.59" fuel="6.59" electricity="0.00" noise="77.75" route="routebottom" type="human" waiting="0.00" lane="bottom_0" pos="22.60" speed="22.60" angle="81.46" x="313.24" y="-1.03"/>
        <vehicle id="1" eclass="HBEFA2/P_7_7" CO2="0.00" CO="0.00" HC="0.00" NOx="0.00" PMx="0.00" fuel="0.00" electricity="0.00" noise="66.81" route="routebottom" type="human" waiting="0.00" lane="bottom_0" pos="89.13" speed="19.13" angle="52.82" x="435.77" y="53.42"/>
        <vehicle id="10" eclass="HBEFA2/P_7_7" CO2="16527.44" CO="332.22" HC="5.96" NOx="39.30" PMx="2.59" fuel="6.59" electricity="0.00" noise="77.75" route="routeleft" type="human" waiting="0.00" lane="left_0" pos="92.60" speed="22.60" angle="141.36" x="57.84" y="93.50"/>
        <vehicle id="11" eclass="HBEFA2/P_7_7" CO2="0.00" CO="0.00" HC="0.00" NOx="0.00" PMx="0.00" fuel="0.00" electricity="0.00" noise="62.85" route="routeleft" type="human" waiting="0.00" lane="left_0" pos="155.50" speed="15.50" angle="114.35" x="159.42" y="17.40"/>
        <vehicle id="2" eclass="HBEFA2/P_7_7" CO2="16527.44" CO="332.22" HC="5.96" NOx="39.30" PMx="2.59" fuel="6.59" electricity="0.00" noise="77.75" route="routebottom" type="human" waiting="0.00" lane="bottom_0" pos="162.60" speed="22.60" angle="21.43" x="522.74" y="172.85"/>
        <vehicle id="3" eclass="HBEFA2/P_7_7" CO2="0.00" CO="0.00" HC="0.00" NOx="0.00" PMx="0.00" fuel="0.00" electricity="0.00" noise="64.54" route="routeright" type="human" waiting="0.00" lane="right_0" pos="17.30" speed="17.30" angle="353.71" x="537.40" y="302.53"/>
        <vehicle id="4" eclass="HBEFA2/P_7_7" CO2="0.00" CO="0.00" HC="0.00" NOx="0.00" PMx="0.00" fuel="0.00" electricity="0.00" noise="62.85" route="routeright" type="human" waiting="0.00" lane="right_0" pos="85.50" speed="15.50" angle="324.39" x="485.88" y="429.91"/>
        <vehicle id="5" eclass="HBEFA2/P_7_7" CO2="0.00" CO="0.00" HC="0.00" NOx="0.00" PMx="0.00" fuel="0.00" electricity="0.00" noise="62.85" route="routeright" type="human" waiting="0.00" lane="right_0" pos="155.50" speed="15.50" angle="294.40" x="375.34" y="517.37"/>
        <vehicle id="6" eclass="HBEFA2/P_7_7" CO2="9467.57" CO="156.43" HC="3.07" NOx="20.97" PMx="1.14" fuel="3.77" electricity="0.00" noise="73.51" route="routetop" type="human" waiting="0.00" lane="top_0" pos="21.58" speed="21.58" angle="261.90" x="223.60" y="536.17"/>
        <vehicle id="7" eclass="HBEFA2/P_7_7" CO2="0.00" CO="0.00" HC="0.00" NOx="0.00" PMx="0.00" fuel="0.00" electricity="0.00" noise="62.85" route="routetop" type="human" waiting="0.00" lane="top_0" pos="85.50" speed="15.50" angle="234.39" x="104.85" y="485.88"/>
        <vehicle id="8" eclass="HBEFA2/P_7_7" CO2="0.00" CO="0.00" HC="0.00" NOx="0.00" PMx="0.00" fuel="0.00" electricity="0.00" noise="64.20" route="routetop" type="human" waiting="0.00" lane="top_0" pos="156.96" speed="16.96" angle="203.87" x="16.24" y="372.61"/>
        <vehicle id="9" eclass="HBEFA2/P_7_7" CO2="0.00" CO="0.00" HC="0.00" NOx="0.00" PMx="0.00" fuel="0.00" electricity="0.00" noise="62.85" route="routeleft" type="human" waiting="0.00" lane="left_0" pos="15.50" speed="15.50" angle="174.36" x="-3.09" y="235.87"/>
    </timestep>
    <timestep time="2.00">
        <vehicle id="0" eclass="HBEFA2/P_7_7" CO2="18675.05" CO="386.45" HC="6.81" NOx="44.65" PMx="2.93" fuel="7.45" electricity="0.00" noise="79.01" route="routebottom" type="human" waiting="0.00" lane="bottom_1" pos="47.80" speed="25.20" angle="70.46" x="361.54" y="15.40"/>
        <vehicle id="1" eclass="HBEFA2/P_7_7" CO2="0.00" CO="0.00" HC="0.00" NOx="0.00" PMx="0.00" fuel="0.00" electricity="0.00" noise="62.07" route="routebottom" type="human" waiting="0.00" lane="bottom_0" pos="103.76" speed="14.63" angle="46.62" x="458.13" y="73.07"/>
        <vehicle id="10" eclass="HBEFA2/P_7_7" CO2="8218.17" CO="128.05" HC="2.54" NOx="17.73" PMx="0.85" fuel="3.28" electricity="0.00" noise="73.23" route="routeleft" type="human" waiting="0.00" lane="left_1" pos="116.33" speed="23.73" angle="131.16" x="93.97" y="61.77"/>
        <vehicle id="11" eclass="HBEFA2/P_7_7" CO2="0.00" CO="0.00" HC="0.00" NOx="0.00" PMx="0.00" fuel="0.00" electricity="0.00" noise="65.26" route="routeleft" type="human" waiting="0.00" lane="left_0" pos="170.85" speed="15.35" angle="107.80" x="188.77" y="6.69"/>
        <vehicle id="2" eclass="HBEFA2/P_7_7" CO2="0.00" CO="0.00" HC="0.00" NOx="0.00" PMx="0.00" fuel="0.00" electricity="0.00" noise="67.30" route="routebottom" type="human" waiting="0.00" lane="bottom_0" pos="183.41" speed="20.81" angle="12.53" x="534.33" y="213.58"/>
        <vehicle id="3" eclass="HBEFA2/P_7_7" CO2="14417.87" CO="281.42" HC="5.14" NOx="34.07" PMx="2.26" fuel="5.75" electricity="0.00" noise="76.43" route="routeright" type="human" waiting="0.00" lane="right_0" pos="37.21" speed="19.90" angle="345.03" x="529.22" y="342.20"/>
        <vehicle id="4" eclass="HBEFA2/P_7_7" CO2="0.00" CO="0.00" HC="0.00" NOx="0.00" PMx="0.00" fuel="0.00" electricity="0.00" noise="58.29" route="routeright" type="human" waiting="0.00" lane="right_0" pos="96.50" speed="11.00" angle="319.67" x="471.78" y="447.32"/>
        <vehicle id="5" eclass="HBEFA2/P_7_7" CO2="0.00" CO="0.00" HC="0.00" NOx="0.00" PMx="0.00" fuel="0.00" electricity="0.00" noise="58.29" route="routeright" type="human" waiting="0.00" lane="right_0" pos="166.50" speed="11.00" angle="289.68" x="354.44" y="525.41"/>
        <vehicle id="6" eclass="HBEFA2/P_7_7" CO2="15487.51" CO="305.22" HC="5.51" NOx="36.37" PMx="2.29" fuel="6.17" electricity="0.00" noise="77.31" route="routetop" type="human" waiting="0.00" lane="top_0" pos="45.48" speed="23.90" angle="251.57" x="176.52" y="524.05"/>
        <vehicle id="7" eclass="HBEFA2/P_7_7" CO2="2646.28" CO="6.54" HC="0.48" NOx="4.68" PMx="0.18" fuel="1.06" electricity="0.00" noise="66.09" route="routetop" type="human" waiting="0.00" lane="top_0" pos="101.14" speed="15.64" angle="227.66" x="80.47" y="465.40"/>
        <vehicle id="8" eclass="HBEFA2/P_7_7" CO2="0.00" CO="0.00" HC="0.00" NOx="0.00" PMx="0.00" fuel="0.00" electricity="0.00" noise="59.92" route="routetop" type="human" waiting="0.00" lane="top_0" pos="169.41" speed="12.46" angle="198.48" x="7.56" y="348.79"/>
        <vehicle id="9" eclass="HBEFA2/P_7_7" CO2="0.00" CO="0.00" HC="0.00" NOx="0.00" PMx="0.00" fuel="0.00" electricity="0.00" noise="58.29" route="routeleft" type="human" waiting="0.00" lane="left_0" pos="26.50" speed="11.00" angle="169.62" x="0.40" y="213.75"/>
    </timestep>
    <timestep time="3.00">
        <vehicle id="0" eclass="HBEFA2/P_7_7" CO2="20952.63" CO="446.48" HC="7.74" NOx="50.34" PMx="3.29" fuel="8.35" electricity="0.00" noise="80.27" route="routebottom" type="human" waiting="0.00" lane="bottom_1" pos="75.60" speed="27.80" angle="58.72" x="411.54" y="40.24"/>
        <vehicle id="1" eclass="HBEFA2/P_7_7" CO2="0.00" CO="0.00" HC="0.00" NOx="0.00" PMx="0.00" fuel="0.00" electricity="0.00" noise="57.21" route="routebottom" type="human" waiting="0.00" lane="bottom_0" pos="113.88" speed="10.13" angle="42.32" x="472.30" y="88.05"/>
        <vehicle id="10" eclass="HBEFA2/P_7_7" CO2="19650.64" CO="411.86" HC="7.21" NOx="47.08" PMx="3.08" fuel="7.83" electricity="0.00" noise="79.56" route="routeleft" type="human" waiting="0.00" lane="left_1" pos="142.67" speed="26.33" angle="119.92" x="137.55" y="31.81"/>
        <vehicle id="11" eclass="HBEFA2/P_7_7" CO2="12951.38" CO="247.61" HC="4.59" NOx="30.46" PMx="2.02" fuel="5.16" electricity="0.00" noise="75.47" route="routeleft" type="human" waiting="0.00" lane="left_0" pos="188.79" speed="17.95" angle="100.24" x="224.36" y="-1.52"/>
        <vehicle id="2" eclass="HBEFA2/P_7_7" CO2="17185.65" CO="348.58" HC="6.22" NOx="40.93" PMx="2.70" fuel="6.85" electricity="0.00" noise="78.14" route="routebottom" type="human" waiting="0.00" lane="bottom_0" pos="206.82" speed="23.41" angle="2.43" x="539.58" y="260.90"/>
        <vehicle id="3" eclass="HBEFA2/P_7_7" CO2="7212.59" CO="103.19" HC="2.17" NOx="15.34" PMx="0.74" fuel="2.88" electricity="0.00" noise="71.89" route="routeright" type="human" waiting="0.00" lane="right_1" pos="58.27" speed="21.06" angle="336.02" x="511.22" y="380.95"/>
        <vehicle id="4" eclass="HBEFA2/P_7_7" CO2="0.00" CO="0.00" HC="0.00" NOx="0.00" PMx="0.00" fuel="0.00" electricity="0.00" noise="51.66" route="routeright" type="human" waiting="0.00" lane="right_0" pos="103.00" speed="6.50" angle="316.97" x="462.79" y="457.03"/>
        <vehicle id="5" eclass="HBEFA2/P_7_7" CO2="0.00" CO="0.00" HC="0.00" NOx="0.00" PMx="0.00" fuel="0.00" electricity="0.00" noise="53.78" route="routeright" type="human" waiting="0.00" lane="right_0" pos="174.05" speed="7.55" angle="286.50" x="339.73" y="529.88"/>
        <vehicle id="6" eclass="HBEFA2/P_7_7" CO2="0.00" CO="0.00" HC="0.00" NOx="0.00" PMx="0.00" fuel="0.00" electricity="0.00" noise="68.66" route="routetop" type="human" waiting="0.00" lane="top_1" pos="68.08" speed="22.60" angle="241.87" x="136.24" y="502.22"/>
        <vehicle id="7" eclass="HBEFA2/P_7_7" CO2="12764.60" CO="242.33" HC="4.51" NOx="29.93" PMx="1.97" fuel="5.09" electricity="0.00" noise="75.34" route="routetop" type="human" waiting="0.00" lane="top_0" pos="119.33" speed="18.18" angle="219.94" x="55.35" y="438.23"/>
        <vehicle id="8" eclass="HBEFA2/P_7_7" CO2="0.00" CO="0.00" HC="0.00" NOx="0.00" PMx="0.00" fuel="0.00" electricity="0.00" noise="58.88" route="routetop" type="human" waiting="0.00" lane="top_0" pos="180.06" speed="10.65" angle="193.91" x="1.90" y="327.86"/>
        <vehicle id="9" eclass="HBEFA2/P_7_7" CO2="0.00" CO="0.00" HC="0.00" NOx="0.00" PMx="0.00" fuel="0.00" electricity="0.00" noise="51.66" route="routeleft" type="human" waiting="0.00" lane="left_0" pos="33.00" speed="6.50" angle="167.00" x="3.33" y="200.84"/>
    </timestep>
    <timestep time="4.00">
        <vehicle id="0" eclass="HBEFA2/P_7_7" CO2="23378.41" CO="512.99" HC="8.75" NOx="56.44" PMx="3.66" fuel="9.32" electricity="0.00" noise="81.51" route="routebottom" type="human" waiting="0.00" lane="bottom_1" pos="106.00" speed="30.40" angle="45.60" x="459.00" y="78.61"/>
        <vehicle id="1" eclass="HBEFA2/P_7_7" CO2="9236.36" CO="167.63" HC="3.24" NOx="21.40" PMx="1.42" fuel="3.68" electricity="0.00" noise="72.93" route="routebottom" type="human" waiting="0.00" lane="bottom_0" pos="126.61" speed="12.73" angle="36.81" x="488.40" y="108.36"/>
        <vehicle id="10" eclass="HBEFA2/P_7_7" CO2="21990.58" CO="474.63" HC="8.17" NOx="52.95" PMx="3.45" fuel="8.77" electricity="0.00" noise="80.81" route="routeleft" type="human" waiting="0.00" lane="left_1" pos="171.60" speed="28.93" angle="107.41" x="191.15" y="9.41"/>
        <vehicle id="11" eclass="HBEFA2/P_7_7" CO2="0.00" CO="0.00" HC="0.00" NOx="0.00" PMx="0.00" fuel="0.00" electricity="0.00" noise="62.36" route="routeleft" type="human" waiting="0.00" lane="left_0" pos="203.59" speed="14.80" angle="93.79" x="254.32" y="-4.60"/>
        <vehicle id="2" eclass="HBEFA2/P_7_7" CO2="19371.92" CO="404.55" HC="7.09" NOx="46.39" PMx="3.04" fuel="7.72" electricity="0.00" noise="79.41" route="routebottom" type="human" waiting="0.00" lane="right_0" pos="22.84" speed="26.01" angle="351.32" x="535.71" y="313.68"/>
        <vehicle id="3" eclass="HBEFA2/P_7_7" CO2="17387.25" CO="353.64" HC="6.30" NOx="41.44" PMx="2.73" fuel="6.93" electricity="0.00" noise="78.26" route="routeright" type="human" waiting="0.00" lane="right_1" pos="81.92" speed="23.66" angle="325.99" x="487.43" y="422.10"/>
        <vehicle id="4" eclass="HBEFA2/P_7_7" CO2="0.00" CO="0.00" HC="0.00" NOx="0.00" PMx="0.00" fuel="0.00" electricity="0.00" noise="40.22" route="routeright" type="human" waiting="0.00" lane="right_0" pos="105.00" speed="2.00" angle="316.06" x="459.91" y="459.91"/>
        <vehicle id="5" eclass="HBEFA2/P_7_7" CO2="0.00" CO="0.00" HC="0.00" NOx="0.00" PMx="0.00" fuel="0.00" electricity="0.00" noise="43.48" route="routeright" type="human" waiting="0.00" lane="right_0" pos="177.09" speed="3.05" angle="285.11" x="333.74" y="531.48"/>
        <vehicle id="6" eclass="HBEFA2/P_7_7" CO2="14353.05" CO="276.89" HC="5.03" NOx="33.31" PMx="2.01" fuel="5.72" electricity="0.00" noise="76.82" route="routetop" type="human" waiting="0.00" lane="top_1" pos="92.77" speed="24.68" angle="231.32" x="95.35" y="474.17"/>
        <vehicle id="7" eclass="HBEFA2/P_7_7" CO2="0.00" CO="0.00" HC="0.00" NOx="0.00" PMx="0.00" fuel="0.00" electricity="0.00" noise="61.18" route="routetop" type="human" waiting="0.00" lane="top_0" pos="133.01" speed="13.68" angle="214.04" x="39.01" y="415.67"/>
        <vehicle id="8" eclass="HBEFA2/P_7_7" CO2="2859.41" CO="17.35" HC="0.70" NOx="5.25" PMx="0.21" fuel="1.14" electricity="0.00" noise="64.70" route="routetop" type="human" waiting="0.00" lane="top_0" pos="191.36" speed="11.30" angle="189.03" x="-2.25" y="305.23"/>
        <vehicle id="9" eclass="HBEFA2/P_7_7" CO2="0.00" CO="0.00" HC="0.00" NOx="0.00" PMx="0.00" fuel="0.00" electricity="0.00" noise="40.22" route="routeleft" type="human" waiting="0.00" lane="left_0" pos="35.00" speed="2.00" angle="166.06" x="4.38" y="196.90"/>
    </timestep>
    <timestep time="5.00">
        <vehicle id="0" eclass="HBEFA2/P_7_7" CO2="25970.59" CO="586.63" HC="9.86" NOx="62.97" PMx="4.05" fuel="10.35" electricity="0.00" noise="82.75" route="routebottom" type="human" waiting="0.00" lane="bottom_1" pos="139.00" speed="33.00" angle="31.40" x="499.32" y="131.13"/>
        <vehicle id="1" eclass="HBEFA2/P_7_7" CO2="0.00" CO="0.00" HC="0.00" NOx="0.00" PMx="0.00" fuel="0.00" electricity="0.00" noise="61.63" route="routebottom" type="human" waiting="0.00" lane="bottom_0" pos="138.61" speed="12.00" angle="31.60" x="501.77" y="128.80"/>
        <vehicle id="10" eclass="HBEFA2/P_7_7" CO2="24486.64" CO="544.16" HC="9.22" NOx="59.23" PMx="3.83" fuel="9.76" electricity="0.00" noise="82.05" route="routeleft" type="human" waiting="0.00" lane="left_1" pos="203.13" speed="31.53" angle="93.99" x="253.54" y="-1.25"/>
        <vehicle id="11" eclass="HBEFA2/P_7_7" CO2="12546.31" CO="238.50" HC="4.44" NOx="29.47" PMx="1.96" fuel="5.00" electricity="0.00" noise="75.20" route="routebottom" type="human" waiting="0.00" lane="bottom_0" pos="10.99" speed="17.40" angle="86.39" x="289.78" y="-4.01"/>
        <vehicle id="2" eclass="HBEFA2/P_7_7" CO2="0.00" CO="0.00" HC="0.00" NOx="0.00" PMx="0.00" fuel="0.00" electricity="0.00" noise="67.36" route="routebottom" type="human" waiting="0.00" lane="right_1" pos="44.35" speed="21.51" angle="342.09" x="521.70" y="355.00"/>
        <vehicle id="3" eclass="HBEFA2/P_7_7" CO2="19585.58" CO="410.15" HC="7.18" NOx="46.92" PMx="3.07" fuel="7.81" electricity="0.00" noise="79.52" route="routeright" type="human" waiting="0.00" lane="right_1" pos="108.18" speed="26.26" angle="314.78" x="453.02" y="462.07"/>
        <vehicle id="4" eclass="HBEFA2/P_7_7" CO2="0.00" CO="0.00" HC="0.00" NOx="0.00" PMx="0.00" fuel="0.00" electricity="0.00" noise="47.15" route="routeright" type="human" waiting="1.00" lane="right_0" pos="105.00" speed="0.00" angle="316.06" x="459.91" y="459.91"/>
        <vehicle id="5" eclass="HBEFA2/P_7_7" CO2="0.00" CO="0.00" HC="0.00" NOx="0.00" PMx="0.00" fuel="0.00" electricity="0.00" noise="42.55" route="routeright" type="human" waiting="1.00" lane="right_0" pos="177.10" speed="0.00" angle="285.11" x="333.73" y="531.49"/>
        <vehicle id="6" eclass="HBEFA2/P_7_7" CO2="0.00" CO="0.00" HC="0.00" NOx="0.00" PMx="0.00" fuel="0.00" electricity="0.00" noise="68.26" route="routetop" type="human" waiting="0.00" lane="top_1" pos="115.30" speed="22.53" angle="221.66" x="63.12" y="442.38"/>
        <vehicle id="7" eclass="HBEFA2/P_7_7" CO2="0.00" CO="0.00" HC="0.00" NOx="0.00" PMx="0.00" fuel="0.00" electricity="0.00" noise="55.95" route="routetop" type="human" waiting="0.00" lane="top_0" pos="142.19" speed="9.18" angle="210.12" x="29.38" y="399.64"/>
        <vehicle id="8" eclass="HBEFA2/P_7_7" CO2="0.00" CO="0.00" HC="0.00" NOx="0.00" PMx="0.00" fuel="0.00" electricity="0.00" noise="53.20" route="routetop" type="human" waiting="0.00" lane="top_0" pos="198.67" speed="7.31" angle="185.84" x="-3.94" y="290.44"/>
        <vehicle id="9" eclass="HBEFA2/P_7_7" CO2="0.00" CO="0.00" HC="0.00" NOx="0.00" PMx="0.00" fuel="0.00" electricity="0.00" noise="47.15" route="routeleft" type="human" waiting="1.00" lane="left_0" pos="35.00" speed="0.00" angle="166.06" x="4.38" y="196.90"/>
    </timestep>
    <timestep time="6.00">
        <vehicle id="0" eclass="HBEFA2/P_7_7" CO2="15714.86" CO="338.54" HC="5.67" NOx="36.22" PMx="1.83" fuel="6.27" electricity="0.00" noise="79.04" route="routebottom" type="human" waiting="0.00" lane="bottom_1" pos="173.36" speed="34.36" angle="16.81" x="526.33" y="194.56"/>
        <vehicle id="1" eclass="HBEFA2/P_7_7" CO2="0.00" CO="0.00" HC="0.00" NOx="0.00" PMx="0.00" fuel="0.00" electricity="0.00" noise="60.50" route="routebottom" type="human" waiting="0.00" lane="bottom_0" pos="149.69" speed="11.08" angle="26.80" x="512.44" y="148.69"/>
        <vehicle id="10" eclass="HBEFA2/P_7_7" CO2="27157.04" CO="621.12" HC="10.37" NOx="65.96" PMx="4.23" fuel="10.83" electricity="0.00" noise="83.29" route="routebottom" type="human" waiting="0.00" lane="bottom_1" pos="27.27" speed="34.13" angle="79.47" x="321.89" y="3.94"/>
        <vehicle id="11" eclass="HBEFA2/P_7_7" CO2="14488.44" CO="283.08" HC="5.17" NOx="34.25" PMx="2.27" fuel="5.78" electricity="0.00" noise="76.48" route="routebottom" type="human" waiting="0.00" lane="bottom_0" pos="30.98" speed="20.00" angle="77.74" x="329.96" y="2.38"/>
        <vehicle id="2" eclass="HBEFA2/P_7_7" CO2="0.00" CO="0.00" HC="0.00" NOx="0.00" PMx="0.00" fuel="0.00" electricity="0.00" noise="64.12" route="routebottom" type="human" waiting="0.00" lane="right_1" pos="61.36" speed="17.01" angle="334.78" x="508.51" y="386.56"/>
        <vehicle id="3" eclass="HBEFA2/P_7_7" CO2="21921.30" CO="472.74" HC="8.14" NOx="52.77" PMx="3.44" fuel="8.74" electricity="0.00" noise="80.77" route="routeright" type="human" waiting="0.00" lane="right_1" pos="137.04" speed="28.86" angle="302.35" x="407.00" y="497.29"/>
        <vehicle id="4" eclass="HBEFA2/P_7_7" CO2="0.00" CO="0.00" HC="0.00" NOx="0.00" PMx="0.00" fuel="0.00" electricity="0.00" noise="55.93" route="routeright" type="human" waiting="2.00" lane="right_0" pos="105.00" speed="0.00" angle="316.06" x="459.91" y="459.91"/>
        <vehicle id="5" eclass="HBEFA2/P_7_7" CO2="0.00" CO="0.00" HC="0.00" NOx="0.00" PMx="0.00" fuel="0.00" electricity="0.00" noise="55.93" route="routeright" type="human" waiting="2.00" lane="right_0" pos="177.10" speed="0.00" angle="285.11" x="333.73" y="531.49"/>
        <vehicle id="6" eclass="HBEFA2/P_7_7" CO2="0.00" CO="0.00" HC="0.00" NOx="0.00" PMx="0.00" fuel="0.00" electricity="0.00" noise="65.73" route="routetop" type="human" waiting="0.00" lane="top_1" pos="134.34" speed="19.05" angle="213.44" x="40.30" y="411.63"/>
        <vehicle id="7" eclass="HBEFA2/P_7_7" CO2="0.00" CO="0.00" HC="0.00" NOx="0.00" PMx="0.00" fuel="0.00" electricity="0.00" noise="55.04" route="routetop" type="human" waiting="0.00" lane="top_0" pos="149.54" speed="7.35" angle="206.91" x="22.47" y="386.37"/>
        <vehicle id="8" eclass="HBEFA2/P_7_7" CO2="0.00" CO="0.00" HC="0.00" NOx="0.00" PMx="0.00" fuel="0.00" electricity="0.00" noise="52.58" route="routetop" type="human" waiting="0.00" lane="top_0" pos="204.11" speed="5.45" angle="183.55" x="-4.67" y="279.37"/>
        <vehicle id="9" eclass="HBEFA2/P_7_7" CO2="0.00" CO="0.00" HC="0.00" NOx="0.00" PMx="0.00" fuel="0.00" electricity="0.00" noise="55.93" route="routeleft" type="human" waiting="2.00" lane="left_0" pos="35.00" speed="0.00" angle="166.06" x="4.38" y="196.90"/>
    </timestep>
    <timestep time="7.00">
        <vehicle id="0" eclass="HBEFA2/P_7_7" CO2="0.00" CO="0.00" HC="0.00" NOx="0.00" PMx="0.00" fuel="0.00" electricity="0.00" noise="71.97" route="routebottom" type="human" waiting="0.00" lane="bottom_1" pos="203.22" speed="29.86" angle="3.92" x="536.02" y="253.73"/>
        <vehicle id="1" eclass="HBEFA2/P_7_7" CO2="0.00" CO="0.00" HC="0.00" NOx="0.00" PMx="0.00" fuel="0.00" electricity="0.00" noise="51.81" route="routebottom" type="human" waiting="0.00" lane="bottom_0" pos="156.28" speed="6.58" angle="24.22" x="518.02" y="160.88"/>
        <vehicle id="10" eclass="HBEFA2/P_7_7" CO2="12676.02" CO="272.84" HC="4.47" NOx="28.75" PMx="1.30" fuel="5.05" electricity="0.00" noise="77.94" route="routebottom" type="human" waiting="0.00" lane="bottom_1" pos="62.27" speed="35.00" angle="64.37" x="388.19" y="27.06"/>
        <vehicle id="11" eclass="HBEFA2/P_7_7" CO2="0.00" CO="0.00" HC="0.00" NOx="0.00" PMx="0.00" fuel="0.00" electricity="0.00" noise="62.85" route="routebottom" type="human" waiting="0.00" lane="bottom_0" pos="46.48" speed="15.50" angle="71.09" x="360.18" y="11.40"/>
        <vehicle id="2" eclass="HBEFA2/P_7_7" CO2="14196.60" CO="276.24" HC="5.06" NOx="33.53" PMx="2.22" fuel="5.66" electricity="0.00" noise="76.29" route="routebottom" type="human" waiting="0.00" lane="right_1" pos="80.97" speed="19.61" angle="326.42" x="488.55" y="420.55"/>
        <vehicle id="3" eclass="HBEFA2/P_7_7" CO2="24412.62" CO="542.07" HC="9.19" NOx="59.04" PMx="3.82" fuel="9.73" electricity="0.00" noise="82.02" route="routeright" type="human" waiting="0.00" lane="right_1" pos="168.50" speed="31.46" angle="288.93" x="349.56" y="523.51"/>
        <vehicle id="4" eclass="HBEFA2/P_7_7" CO2="0.00" CO="0.00" HC="0.00" NOx="0.00" PMx="0.00" fuel="0.00" electricity="0.00" noise="55.94" route="routeright" type="human" waiting="3.00" lane="right_0" pos="105.00" speed="0.00" angle="316.06" x="459.91" y="459.91"/>
        <vehicle id="5" eclass="HBEFA2/P_7_7" CO2="2386.41" CO="37.95" HC="0.93" NOx="5.03" PMx="0.31" fuel="0.95" electricity="0.00" noise="68.38" route="routeright" type="human" waiting="0.00" lane="right_0" pos="179.70" speed="2.60" angle="284.08" x="328.58" y="532.70"/>
        <vehicle id="6" eclass="HBEFA2/P_7_7" CO2="0.00" CO="0.00" HC="0.00" NOx="0.00" PMx="0.00" fuel="0.00" electricity="0.00" noise="63.25" route="routetop" type="human" waiting="0.00" lane="top_1" pos="150.18" speed="15.83" angle="206.62" x="24.87" y="383.79"/>
        <vehicle id="7" eclass="HBEFA2/P_7_7" CO2="0.00" CO="0.00" HC="0.00" NOx="0.00" PMx="0.00" fuel="0.00" electricity="0.00" noise="42.89" route="routetop" type="human" waiting="0.00" lane="top_0" pos="152.39" speed="2.85" angle="205.78" x="20.00" y="381.12"/>
        <vehicle id="8" eclass="HBEFA2/P_7_7" CO2="6054.40" CO="105.07" HC="2.15" NOx="13.74" PMx="0.90" fuel="2.41" electricity="0.00" noise="70.72" route="routetop" type="human" waiting="0.00" lane="left_0" pos="2.16" speed="8.05" angle="180.16" x="-4.86" y="262.97"/>
        <vehicle id="9" eclass="HBEFA2/P_7_7" CO2="0.00" CO="0.00" HC="0.00" NOx="0.00" PMx="0.00" fuel="0.00" electricity="0.00" noise="55.94" route="routeleft" type="human" waiting="3.00" lane="left_0" pos="35.00" speed="0.00" angle="166.06" x="4.38" y="196.90"/>
    </timestep>
    <timestep time="8.00">
        <vehicle id="0" eclass="HBEFA2/P_7_7" CO2="0.00" CO="0.00" HC="0.00" NOx="0.00" PMx="0.00" fuel="0.00" electricity="0.00" noise="73.59" route="routebottom" type="human" waiting="0.00" lane="right_1" pos="22.97" speed="29.74" angle="351.27" x="532.41" y="313.39"/>
        <vehicle id="1" eclass="HBEFA2/P_7_7" CO2="0.00" CO="0.00" HC="0.00" NOx="0.00" PMx="0.00" fuel="0.00" electricity="0.00" noise="40.49" route="routebottom" type="human" waiting="0.00" lane="bottom_0" pos="158.36" speed="2.08" angle="23.23" x="519.60" y="164.81"/>
        <vehicle id="10" eclass="HBEFA2/P_7_7" CO2="0.00" CO="0.00" HC="0.00" NOx="0.00" PMx="0.00" fuel="0.00" electricity="0.00" noise="72.27" route="routebottom" type="human" waiting="0.00" lane="bottom_1" pos="92.77" speed="30.50" angle="51.32" x="439.41" y="60.59"/>
        <vehicle id="11" eclass="HBEFA2/P_7_7" CO2="13061.02" CO="250.10" HC="4.63" NOx="30.73" PMx="2.04" fuel="5.21" electricity="0.00" noise="75.55" route="routebottom" type="human" waiting="0.00" lane="bottom_0" pos="64.57" speed="18.10" angle="63.48" x="393.89" y="26.22"/>
        <vehicle id="2" eclass="HBEFA2/P_7_7" CO2="0.00" CO="0.00" HC="0.00" NOx="0.00" PMx="0.00" fuel="0.00" electricity="0.00" noise="63.23" route="routebottom" type="human" waiting="0.00" lane="right_1" pos="96.86" speed="15.88" angle="319.68" x="468.84" y="445.69"/>
        <vehicle id="3" eclass="HBEFA2/P_7_7" CO2="20921.76" CO="460.90" HC="7.78" NOx="49.61" PMx="2.91" fuel="8.34" electricity="0.00" noise="80.94" route="routeright" type="human" waiting="0.00" lane="right_1" pos="202.01" speed="33.51" angle="274.48" x="283.47" y="535.87"/>