<?xml version="1.0" encoding="UTF-8"?>

<!-- generated on Wed Oct 25 17:09:25 2017 by SUMO Version dev-SVN-r25535
<?xml version="1.0" encoding="UTF-8"?>

<configuration xmlns:xsi="http://www.w3.org/2001/XMLSchema-instance" xsi:noNamespaceSchemaLocation="http://sumo.dlr.de/xsd/sumoConfiguration.xsd">

    <input>
        <net-file value="debug/cfg/rl-test-200m1l.net.xml"/>
        <route-files value="debug/cfg/rl-test-200m1l.rou.xml"/>
        <additional-files value="debug/cfg/rl-test-200m1l.add.xml"/>
    </input>

    <output>
        <emission-output value="./test_time_rollout/rl-test-emission.xml"/>
    </output>

    <time>
        <begin value="0"/>
        <step-length value="0.1"/>
    </time>

    <traci_server>
        <remote-port value="48791"/>
    </traci_server>

    <gui_only>
        <gui-settings-file value="debug/cfg/rl-test-200m1l.gui.cfg"/>
    </gui_only>

</configuration>
-->

<emission-export xmlns:xsi="http://www.w3.org/2001/XMLSchema-instance" xsi:noNamespaceSchemaLocation="http://sumo.dlr.de/xsd/emission_file.xsd">
    <timestep time="0.00">
        <vehicle id="cfm_0" eclass="HBEFA3/PC_G_EU4" CO2="2624.72" CO="164.78" HC="0.81" NOx="1.20" PMx="0.07" fuel="1.13" electricity="0.00" noise="55.94" route="routetop" type="cfm" waiting="0.00" lane="top_0" pos="0.00" speed="0.00" angle="274.49" x="31.81" y="65.31"/>
        <vehicle id="cfm_1" eclass="HBEFA3/PC_G_EU4" CO2="2624.72" CO="164.78" HC="0.81" NOx="1.20" PMx="0.07" fuel="1.13" electricity="0.00" noise="55.94" route="routetop" type="cfm" waiting="0.00" lane="top_0" pos="25.00" speed="0.00" angle="229.54" x="8.16" y="55.51"/>
        <vehicle id="cfm_2" eclass="HBEFA3/PC_G_EU4" CO2="2624.72" CO="164.78" HC="0.81" NOx="1.20" PMx="0.07" fuel="1.13" electricity="0.00" noise="55.94" route="routeleft" type="cfm" waiting="0.00" lane="left_0" pos="0.00" speed="0.00" angle="184.49" x="-1.65" y="31.81"/>
        <vehicle id="cfm_3" eclass="HBEFA3/PC_G_EU4" CO2="2624.72" CO="164.78" HC="0.81" NOx="1.20" PMx="0.07" fuel="1.13" electricity="0.00" noise="55.94" route="routeleft" type="cfm" waiting="0.00" lane="left_0" pos="25.00" speed="0.00" angle="139.49" x="8.16" y="8.16"/>
        <vehicle id="rl_0" eclass="HBEFA3/PC_G_EU4" CO2="2624.72" CO="164.78" HC="0.81" NOx="1.20" PMx="0.07" fuel="1.13" electricity="0.00" noise="55.94" route="routebottom" type="rl" waiting="0.00" lane="bottom_0" pos="0.00" speed="0.00" angle="94.47" x="31.86" y="-1.65"/>
        <vehicle id="rl_1" eclass="HBEFA3/PC_G_EU4" CO2="2624.72" CO="164.78" HC="0.81" NOx="1.20" PMx="0.07" fuel="1.13" electricity="0.00" noise="55.94" route="routebottom" type="rl" waiting="0.00" lane="bottom_0" pos="25.00" speed="0.00" angle="49.50" x="55.51" y="8.16"/>
        <vehicle id="rl_2" eclass="HBEFA3/PC_G_EU4" CO2="2624.72" CO="164.78" HC="0.81" NOx="1.20" PMx="0.07" fuel="1.13" electricity="0.00" noise="55.94" route="routeright" type="rl" waiting="0.00" lane="right_0" pos="0.00" speed="0.00" angle="4.47" x="65.31" y="31.86"/>
        <vehicle id="rl_3" eclass="HBEFA3/PC_G_EU4" CO2="2624.72" CO="164.78" HC="0.81" NOx="1.20" PMx="0.07" fuel="1.13" electricity="0.00" noise="55.94" route="routeright" type="rl" waiting="0.00" lane="right_0" pos="25.00" speed="0.00" angle="319.54" x="55.51" y="55.51"/>
    </timestep>
    <timestep time="0.10">
        <vehicle id="cfm_0" eclass="HBEFA3/PC_G_EU4" CO2="2624.72" CO="164.78" HC="0.81" NOx="1.20" PMx="0.07" fuel="1.13" electricity="0.00" noise="55.94" route="routetop" type="cfm" waiting="0.00" lane="top_0" pos="0.00" speed="0.00" angle="274.49" x="31.81" y="65.31"/>
        <vehicle id="cfm_1" eclass="HBEFA3/PC_G_EU4" CO2="2624.72" CO="164.78" HC="0.81" NOx="1.20" PMx="0.07" fuel="1.13" electricity="0.00" noise="55.94" route="routetop" type="cfm" waiting="0.00" lane="top_0" pos="25.00" speed="0.00" angle="229.54" x="8.16" y="55.51"/>
        <vehicle id="cfm_2" eclass="HBEFA3/PC_G_EU4" CO2="2624.72" CO="164.78" HC="0.81" NOx="1.20" PMx="0.07" fuel="1.13" electricity="0.00" noise="55.94" route="routeleft" type="cfm" waiting="0.00" lane="left_0" pos="0.00" speed="0.00" angle="184.49" x="-1.65" y="31.81"/>
        <vehicle id="cfm_3" eclass="HBEFA3/PC_G_EU4" CO2="2624.72" CO="164.78" HC="0.81" NOx="1.20" PMx="0.07" fuel="1.13" electricity="0.00" noise="55.94" route="routeleft" type="cfm" waiting="0.00" lane="left_0" pos="25.00" speed="0.00" angle="139.49" x="8.16" y="8.16"/>
        <vehicle id="rl_0" eclass="HBEFA3/PC_G_EU4" CO2="2624.72" CO="164.78" HC="0.81" NOx="1.20" PMx="0.07" fuel="1.13" electricity="0.00" noise="55.94" route="routebottom" type="rl" waiting="0.00" lane="bottom_0" pos="0.00" speed="0.00" angle="94.47" x="31.86" y="-1.65"/>
        <vehicle id="rl_1" eclass="HBEFA3/PC_G_EU4" CO2="2624.72" CO="164.78" HC="0.81" NOx="1.20" PMx="0.07" fuel="1.13" electricity="0.00" noise="55.94" route="routebottom" type="rl" waiting="0.00" lane="bottom_0" pos="25.00" speed="0.00" angle="49.50" x="55.51" y="8.16"/>
        <vehicle id="rl_2" eclass="HBEFA3/PC_G_EU4" CO2="2624.72" CO="164.78" HC="0.81" NOx="1.20" PMx="0.07" fuel="1.13" electricity="0.00" noise="55.94" route="routeright" type="rl" waiting="0.00" lane="right_0" pos="0.00" speed="0.00" angle="4.47" x="65.31" y="31.86"/>
        <vehicle id="rl_3" eclass="HBEFA3/PC_G_EU4" CO2="2624.72" CO="164.78" HC="0.81" NOx="1.20" PMx="0.07" fuel="1.13" electricity="0.00" noise="55.94" route="routeright" type="rl" waiting="0.00" lane="right_0" pos="25.00" speed="0.00" angle="319.54" x="55.51" y="55.51"/>
    </timestep>
    <timestep time="0.20">
        <vehicle id="cfm_0" eclass="HBEFA3/PC_G_EU4" CO2="12619.79" CO="337.20" HC="1.84" NOx="5.87" PMx="0.32" fuel="5.42" electricity="0.00" noise="143.82" route="routetop" type="cfm" waiting="0.00" lane="top_0" pos="0.20" speed="1.98" angle="274.13" x="31.60" y="65.31"/>
        <vehicle id="cfm_1" eclass="HBEFA3/PC_G_EU4" CO2="12619.79" CO="337.20" HC="1.84" NOx="5.87" PMx="0.32" fuel="5.42" electricity="0.00" noise="143.82" route="routetop" type="cfm" waiting="0.00" lane="top_0" pos="25.20" speed="1.98" angle="229.18" x="8.01" y="55.36"/>
        <vehicle id="cfm_2" eclass="HBEFA3/PC_G_EU4" CO2="12619.79" CO="337.20" HC="1.84" NOx="5.87" PMx="0.32" fuel="5.42" electricity="0.00" noise="143.82" route="routeleft" type="cfm" waiting="0.00" lane="left_0" pos="0.20" speed="1.98" angle="184.13" x="-1.65" y="31.60"/>
        <vehicle id="cfm_3" eclass="HBEFA3/PC_G_EU4" CO2="12619.79" CO="337.20" HC="1.84" NOx="5.87" PMx="0.32" fuel="5.42" electricity="0.00" noise="143.82" route="routeleft" type="cfm" waiting="0.00" lane="left_0" pos="25.20" speed="1.98" angle="139.12" x="8.31" y="8.01"/>
        <vehicle id="rl_0" eclass="HBEFA3/PC_G_EU4" CO2="2763.59" CO="163.13" HC="0.81" NOx="1.26" PMx="0.07" fuel="1.19" electricity="0.00" noise="67.33" route="routebottom" type="rl" waiting="0.00" lane="bottom_0" pos="0.03" speed="0.26" angle="94.43" x="31.89" y="-1.65"/>
        <vehicle id="rl_1" eclass="HBEFA3/PC_G_EU4" CO2="2816.85" CO="163.52" HC="0.81" NOx="1.29" PMx="0.07" fuel="1.21" electricity="0.00" noise="69.12" route="routebottom" type="rl" waiting="0.00" lane="bottom_0" pos="25.03" speed="0.30" angle="49.44" x="55.53" y="8.18"/>
        <vehicle id="rl_2" eclass="HBEFA3/PC_G_EU4" CO2="2624.72" CO="164.78" HC="0.81" NOx="1.20" PMx="0.07" fuel="1.13" electricity="0.00" noise="55.94" route="routeright" type="rl" waiting="0.10" lane="right_0" pos="0.00" speed="0.00" angle="4.47" x="65.31" y="31.86"/>
        <vehicle id="rl_3" eclass="HBEFA3/PC_G_EU4" CO2="2623.23" CO="164.43" HC="0.81" NOx="1.20" PMx="0.07" fuel="1.13" electricity="0.00" noise="56.75" route="routeright" type="rl" waiting="0.10" lane="right_0" pos="25.00" speed="0.02" angle="319.54" x="55.50" y="55.51"/>
    </timestep>
    <timestep time="0.30">
        <vehicle id="cfm_0" eclass="HBEFA3/PC_G_EU4" CO2="22676.43" CO="514.16" HC="2.90" NOx="10.56" PMx="0.57" fuel="9.75" electricity="0.00" noise="144.61" route="routetop" type="cfm" waiting="0.00" lane="top_0" pos="0.59" speed="3.96" angle="273.43" x="31.19" y="65.30"/>
        <vehicle id="cfm_1" eclass="HBEFA3/PC_G_EU4" CO2="22676.43" CO="514.16" HC="2.90" NOx="10.56" PMx="0.57" fuel="9.75" electricity="0.00" noise="144.61" route="routetop" type="cfm" waiting="0.00" lane="top_0" pos="25.59" speed="3.96" angle="228.51" x="7.72" y="55.07"/>
        <vehicle id="cfm_2" eclass="HBEFA3/PC_G_EU4" CO2="22676.43" CO="514.16" HC="2.90" NOx="10.56" PMx="0.57" fuel="9.75" electricity="0.00" noise="144.61" route="routeleft" type="cfm" waiting="0.00" lane="left_0" pos="0.59" speed="3.96" angle="183.43" x="-1.64" y="31.19"/>
        <vehicle id="cfm_3" eclass="HBEFA3/PC_G_EU4" CO2="22676.43" CO="514.16" HC="2.90" NOx="10.56" PMx="0.57" fuel="9.75" electricity="0.00" noise="144.61" route="routeleft" type="cfm" waiting="0.00" lane="left_0" pos="25.59" speed="3.96" angle="138.43" x="8.60" y="7.72"/>
        <vehicle id="rl_0" eclass="HBEFA3/PC_G_EU4" CO2="2632.62" CO="159.41" HC="0.79" NOx="1.20" PMx="0.06" fuel="1.13" electricity="0.00" noise="58.63" route="routebottom" type="rl" waiting="0.00" lane="bottom_0" pos="0.06" speed="0.32" angle="94.37" x="31.92" y="-1.65"/>
        <vehicle id="rl_1" eclass="HBEFA3/PC_G_EU4" CO2="3010.37" CO="162.36" HC="0.81" NOx="1.37" PMx="0.07" fuel="1.29" electricity="0.00" noise="69.23" route="routebottom" type="rl" waiting="0.00" lane="bottom_0" pos="25.09" speed="0.59" angle="49.33" x="55.57" y="8.23"/>
        <vehicle id="rl_2" eclass="HBEFA3/PC_G_EU4" CO2="2676.79" CO="162.89" HC="0.80" NOx="1.22" PMx="0.07" fuel="1.15" electricity="0.00" noise="63.40" route="routeright" type="rl" waiting="0.00" lane="right_0" pos="0.02" speed="0.17" angle="4.44" x="65.31" y="31.88"/>
        <vehicle id="rl_3" eclass="HBEFA3/PC_G_EU4" CO2="2624.50" CO="163.60" HC="0.81" NOx="1.20" PMx="0.07" fuel="1.13" electricity="0.00" noise="58.09" route="routeright" type="rl" waiting="0.20" lane="right_0" pos="25.01" speed="0.07" angle="319.53" x="55.50" y="55.51"/>
    </timestep>
    <timestep time="0.40">
        <vehicle id="cfm_0" eclass="HBEFA3/PC_G_EU4" CO2="32794.62" CO="695.66" HC="3.98" NOx="15.28" PMx="0.83" fuel="14.10" electricity="0.00" noise="145.42" route="routetop" type="cfm" waiting="0.00" lane="top_0" pos="1.19" speed="5.94" angle="272.37" x="30.56" y="65.29"/>
        <vehicle id="cfm_1" eclass="HBEFA3/PC_G_EU4" CO2="32794.62" CO="695.66" HC="3.98" NOx="15.28" PMx="0.83" fuel="14.10" electricity="0.00" noise="145.42" route="routetop" type="cfm" waiting="0.00" lane="top_0" pos="26.19" speed="5.94" angle="227.39" x="7.30" y="54.61"/>
        <vehicle id="cfm_2" eclass="HBEFA3/PC_G_EU4" CO2="32794.62" CO="695.66" HC="3.98" NOx="15.28" PMx="0.83" fuel="14.10" electricity="0.00" noise="145.42" route="routeleft" type="cfm" waiting="0.00" lane="left_0" pos="1.19" speed="5.94" angle="182.38" x="-1.63" y="30.56"/>
        <vehicle id="cfm_3" eclass="HBEFA3/PC_G_EU4" CO2="32794.62" CO="695.66" HC="3.98" NOx="15.28" PMx="0.83" fuel="14.10" electricity="0.00" noise="145.42" route="routeleft" type="cfm" waiting="0.00" lane="left_0" pos="26.19" speed="5.94" angle="137.34" x="9.06" y="7.29"/>
        <vehicle id="rl_0" eclass="HBEFA3/PC_G_EU4" CO2="0.00" CO="0.00" HC="0.00" NOx="0.00" PMx="0.00" fuel="0.00" electricity="0.00" noise="42.88" route="routebottom" type="rl" waiting="0.10" lane="bottom_0" pos="0.06" speed="0.02" angle="94.37" x="31.92" y="-1.65"/>
        <vehicle id="rl_1" eclass="HBEFA3/PC_G_EU4" CO2="3205.27" CO="161.31" HC="0.81" NOx="1.45" PMx="0.08" fuel="1.38" electricity="0.00" noise="69.34" route="routebottom" type="rl" waiting="0.00" lane="bottom_0" pos="25.18" speed="0.89" angle="49.16" x="55.64" y="8.29"/>
        <vehicle id="rl_2" eclass="HBEFA3/PC_G_EU4" CO2="2617.43" CO="161.05" HC="0.79" NOx="1.20" PMx="0.06" fuel="1.13" electricity="0.00" noise="57.57" route="routeright" type="rl" waiting="0.00" lane="right_0" pos="0.04" speed="0.20" angle="4.41" x="65.31" y="31.90"/>
        <vehicle id="rl_3" eclass="HBEFA3/PC_G_EU4" CO2="0.00" CO="0.00" HC="0.00" NOx="0.00" PMx="0.00" fuel="0.00" electricity="0.00" noise="53.05" route="routeright" type="rl" waiting="0.30" lane="right_0" pos="25.01" speed="0.00" angle="319.53" x="55.50" y="55.51"/>
    </timestep>
    <timestep time="0.50">
        <vehicle id="cfm_0" eclass="HBEFA3/PC_G_EU4" CO2="42974.38" CO="881.71" HC="5.08" NOx="20.03" PMx="1.08" fuel="18.47" electricity="0.00" noise="146.26" route="routetop" type="cfm" waiting="0.00" lane="top_0" pos="1.98" speed="7.92" angle="270.94" x="29.73" y="65.25"/>
        <vehicle id="cfm_1" eclass="HBEFA3/PC_G_EU4" CO2="42974.38" CO="881.71" HC="5.08" NOx="20.03" PMx="1.08" fuel="18.47" electricity="0.00" noise="146.26" route="routetop" type="cfm" waiting="0.00" lane="top_0" pos="26.98" speed="7.92" angle="225.93" x="6.74" y="53.99"/>
        <vehicle id="cfm_2" eclass="HBEFA3/PC_G_EU4" CO2="42974.38" CO="881.71" HC="5.08" NOx="20.03" PMx="1.08" fuel="18.47" electricity="0.00" noise="146.26" route="routeleft" type="cfm" waiting="0.00" lane="left_0" pos="1.98" speed="7.92" angle="180.95" x="-1.58" y="29.73"/>
        <vehicle id="cfm_3" eclass="HBEFA3/PC_G_EU4" CO2="42974.38" CO="881.71" HC="5.08" NOx="20.03" PMx="1.08" fuel="18.47" electricity="0.00" noise="146.26" route="routeleft" type="cfm" waiting="0.00" lane="left_0" pos="26.98" speed="7.92" angle="135.93" x="9.67" y="6.73"/>
        <vehicle id="rl_0" eclass="HBEFA3/PC_G_EU4" CO2="2828.56" CO="163.45" HC="0.81" NOx="1.29" PMx="0.07" fuel="1.22" electricity="0.00" noise="69.13" route="routebottom" type="rl" waiting="0.00" lane="bottom_0" pos="0.09" speed="0.32" angle="94.31" x="31.96" y="-1.65"/>
        <vehicle id="rl_1" eclass="HBEFA3/PC_G_EU4" CO2="3401.55" CO="160.36" HC="0.81" NOx="1.54" PMx="0.08" fuel="1.46" electricity="0.00" noise="69.46" route="routebottom" type="rl" waiting="0.00" lane="bottom_0" pos="25.30" speed="1.19" angle="48.94" x="55.73" y="8.38"/>
        <vehicle id="rl_2" eclass="HBEFA3/PC_G_EU4" CO2="2949.29" CO="162.72" HC="0.81" NOx="1.34" PMx="0.07" fuel="1.27" electricity="0.00" noise="69.20" route="routeright" type="rl" waiting="0.00" lane="right_0" pos="0.09" speed="0.50" angle="4.32" x="65.31" y="31.95"/>
        <vehicle id="rl_3" eclass="HBEFA3/PC_G_EU4" CO2="2817.28" CO="163.52" HC="0.81" NOx="1.29" PMx="0.07" fuel="1.21" electricity="0.00" noise="69.12" route="routeright" type="rl" waiting="0.00" lane="right_0" pos="25.04" speed="0.30" angle="319.47" x="55.48" y="55.53"/>
    </timestep>
    <timestep time="0.60">
        <vehicle id="cfm_0" eclass="HBEFA3/PC_G_EU4" CO2="53215.70" CO="1072.31" HC="6.20" NOx="24.81" PMx="1.35" fuel="22.87" electricity="0.00" noise="147.12" route="routetop" type="cfm" waiting="0.00" lane="top_0" pos="2.97" speed="9.90" angle="269.15" x="28.69" y="65.16"/>
        <vehicle id="cfm_1" eclass="HBEFA3/PC_G_EU4" CO2="53215.70" CO="1072.31" HC="6.20" NOx="24.81" PMx="1.35" fuel="22.87" electricity="0.00" noise="147.12" route="routetop" type="cfm" waiting="0.00" lane="top_0" pos="27.97" speed="9.90" angle="224.09" x="6.06" y="53.20"/>
        <vehicle id="cfm_2" eclass="HBEFA3/PC_G_EU4" CO2="53215.70" CO="1072.31" HC="6.20" NOx="24.81" PMx="1.35" fuel="22.87" electricity="0.00" noise="147.12" route="routeleft" type="cfm" waiting="0.00" lane="left_0" pos="2.97" speed="9.90" angle="179.15" x="-1.50" y="28.69"/>
        <vehicle id="cfm_3" eclass="HBEFA3/PC_G_EU4" CO2="53215.70" CO="1072.31" HC="6.20" NOx="24.81" PMx="1.35" fuel="22.87" electricity="0.00" noise="147.12" route="routeleft" type="cfm" waiting="0.00" lane="left_0" pos="27.97" speed="9.90" angle="134.16" x="10.46" y="6.06"/>
        <vehicle id="rl_0" eclass="HBEFA3/PC_G_EU4" CO2="0.00" CO="0.00" HC="0.00" NOx="0.00" PMx="0.00" fuel="0.00" electricity="0.00" noise="51.97" route="routebottom" type="rl" waiting="0.00" lane="bottom_0" pos="0.11" speed="0.22" angle="94.27" x="31.98" y="-1.65"/>
        <vehicle id="rl_1" eclass="HBEFA3/PC_G_EU4" CO2="3599.23" CO="159.51" HC="0.81" NOx="1.62" PMx="0.08" fuel="1.55" electricity="0.00" noise="69.57" route="routebottom" type="rl" waiting="0.00" lane="bottom_0" pos="25.45" speed="1.49" angle="48.66" x="55.84" y="8.49"/>
        <vehicle id="rl_2" eclass="HBEFA3/PC_G_EU4" CO2="2822.93" CO="157.32" HC="0.78" NOx="1.28" PMx="0.07" fuel="1.21" electricity="0.00" noise="63.34" route="routeright" type="rl" waiting="0.00" lane="right_0" pos="0.15" speed="0.66" angle="4.20" x="65.31" y="32.02"/>
        <vehicle id="rl_3" eclass="HBEFA3/PC_G_EU4" CO2="0.00" CO="0.00" HC="0.00" NOx="0.00" PMx="0.00" fuel="0.00" electricity="0.00" noise="42.97" route="routeright" type="rl" waiting="0.10" lane="right_0" pos="25.04" speed="0.00" angle="319.47" x="55.48" y="55.53"/>
    </timestep>
    <timestep time="0.70">
        <vehicle id="cfm_0" eclass="HBEFA3/PC_G_EU4" CO2="63518.59" CO="1267.45" HC="7.34" NOx="29.62" PMx="1.61" fuel="27.30" electricity="0.00" noise="148.00" route="routetop" type="cfm" waiting="0.00" lane="top_0" pos="4.16" speed="11.88" angle="267.03" x="27.45" y="65.02"/>
        <vehicle id="cfm_1" eclass="HBEFA3/PC_G_EU4" CO2="63518.59" CO="1267.45" HC="7.34" NOx="29.62" PMx="1.61" fuel="27.30" electricity="0.00" noise="148.00" route="routetop" type="cfm" waiting="0.00" lane="top_0" pos="29.16" speed="11.88" angle="222.01" x="5.28" y="52.22"/>
        <vehicle id="cfm_2" eclass="HBEFA3/PC_G_EU4" CO2="63518.59" CO="1267.45" HC="7.34" NOx="29.62" PMx="1.61" fuel="27.30" electricity="0.00" noise="148.00" route="routeleft" type="cfm" waiting="0.00" lane="left_0" pos="4.16" speed="11.88" angle="177.03" x="-1.36" y="27.45"/>
        <vehicle id="cfm_3" eclass="HBEFA3/PC_G_EU4" CO2="63518.59" CO="1267.45" HC="7.34" NOx="29.62" PMx="1.61" fuel="27.30" electricity="0.00" noise="148.00" route="routeleft" type="cfm" waiting="0.00" lane="left_0" pos="29.16" speed="11.88" angle="132.01" x="11.44" y="5.28"/>
        <vehicle id="rl_0" eclass="HBEFA3/PC_G_EU4" CO2="2961.93" CO="162.64" HC="0.81" NOx="1.35" PMx="0.07" fuel="1.27" electricity="0.00" noise="69.20" route="routebottom" type="rl" waiting="0.00" lane="bottom_0" pos="0.16" speed="0.52" angle="94.18" x="32.03" y="-1.65"/>
        <vehicle id="rl_1" eclass="HBEFA3/PC_G_EU4" CO2="0.00" CO="0.00" HC="0.00" NOx="0.00" PMx="0.00" fuel="0.00" electricity="0.00" noise="45.62" route="routebottom" type="rl" waiting="0.00" lane="bottom_0" pos="25.57" speed="1.24" angle="48.46" x="55.93" y="8.59"/>
        <vehicle id="rl_2" eclass="HBEFA3/PC_G_EU4" CO2="3250.71" CO="161.08" HC="0.81" NOx="1.47" PMx="0.08" fuel="1.40" electricity="0.00" noise="69.37" route="routeright" type="rl" waiting="0.00" lane="right_0" pos="0.25" speed="0.96" angle="4.03" x="65.31" y="32.12"/>
        <vehicle id="rl_3" eclass="HBEFA3/PC_G_EU4" CO2="0.00" CO="0.00" HC="0.00" NOx="0.00" PMx="0.00" fuel="0.00" electricity="0.00" noise="55.81" route="routeright" type="rl" waiting="0.20" lane="right_0" pos="25.04" speed="0.00" angle="319.47" x="55.48" y="55.53"/>
    </timestep>
    <timestep time="0.80">
        <vehicle id="cfm_0" eclass="HBEFA3/PC_G_EU4" CO2="73883.03" CO="1467.13" HC="8.51" NOx="34.46" PMx="1.88" fuel="31.76" electricity="0.00" noise="148.89" route="routetop" type="cfm" waiting="0.00" lane="top_0" pos="5.54" speed="13.86" angle="264.51" x="26.01" y="64.80"/>
        <vehicle id="cfm_1" eclass="HBEFA3/PC_G_EU4" CO2="73883.03" CO="1467.13" HC="8.51" NOx="34.46" PMx="1.88" fuel="31.76" electricity="0.00" noise="148.89" route="routetop" type="cfm" waiting="0.00" lane="top_0" pos="30.54" speed="13.86" angle="219.48" x="4.42" y="51.05"/>
        <vehicle id="cfm_2" eclass="HBEFA3/PC_G_EU4" CO2="73883.03" CO="1467.13" HC="8.51" NOx="34.46" PMx="1.88" fuel="31.76" electricity="0.00" noise="148.89" route="routeleft" type="cfm" waiting="0.00" lane="left_0" pos="5.54" speed="13.86" angle="174.51" x="-1.14" y="26.01"/>
        <vehicle id="cfm_3" eclass="HBEFA3/PC_G_EU4" CO2="73883.03" CO="1467.13" HC="8.51" NOx="34.46" PMx="1.88" fuel="31.76" electricity="0.00" noise="148.89" route="routeleft" type="cfm" waiting="0.00" lane="left_0" pos="30.54" speed="13.86" angle="129.49" x="12.62" y="4.42"/>
        <vehicle id="rl_0" eclass="HBEFA3/PC_G_EU4" CO2="2725.90" CO="155.90" HC="0.77" NOx="1.23" PMx="0.07" fuel="1.17" electricity="0.00" noise="61.00" route="routebottom" type="rl" waiting="0.00" lane="bottom_0" pos="0.23" speed="0.63" angle="94.07" x="32.10" y="-1.65"/>
        <vehicle id="rl_1" eclass="HBEFA3/PC_G_EU4" CO2="2605.01" CO="142.51" HC="0.71" NOx="1.16" PMx="0.06" fuel="1.12" electricity="0.00" noise="58.19" route="routebottom" type="rl" waiting="0.00" lane="bottom_0" pos="25.70" speed="1.28" angle="48.26" x="56.02" y="8.68"/>
        <vehicle id="rl_2" eclass="HBEFA3/PC_G_EU4" CO2="3323.76" CO="158.14" HC="0.80" NOx="1.50" PMx="0.08" fuel="1.43" electricity="0.00" noise="68.06" route="routeright" type="rl" waiting="0.00" lane="right_0" pos="0.37" speed="1.23" angle="3.81" x="65.30" y="32.25"/>
        <vehicle id="rl_3" eclass="HBEFA3/PC_G_EU4" CO2="0.00" CO="0.00" HC="0.00" NOx="0.00" PMx="0.00" fuel="0.00" electricity="0.00" noise="55.94" route="routeright" type="rl" waiting="0.30" lane="right_0" pos="25.04" speed="0.00" angle="319.47" x="55.48" y="55.53"/>
    </timestep>
    <timestep time="0.90">
        <vehicle id="cfm_0" eclass="HBEFA3/PC_G_EU4" CO2="84309.04" CO="1671.36" HC="9.70" NOx="39.33" PMx="2.15" fuel="36.24" electricity="0.00" noise="149.80" route="routetop" type="cfm" waiting="0.00" lane="top_0" pos="7.13" speed="15.84" angle="261.61" x="24.38" y="64.47"/>
        <vehicle id="cfm_1" eclass="HBEFA3/PC_G_EU4" CO2="84309.04" CO="1671.36" HC="9.70" NOx="39.33" PMx="2.15" fuel="36.24" electricity="0.00" noise="149.80" route="routetop" type="cfm" waiting="0.00" lane="top_0" pos="32.13" speed="15.84" angle="216.64" x="3.50" y="49.66"/>
        <vehicle id="cfm_2" eclass="HBEFA3/PC_G_EU4" CO2="84309.04" CO="1671.36" HC="9.70" NOx="39.33" PMx="2.15" fuel="36.24" electricity="0.00" noise="149.80" route="routeleft" type="cfm" waiting="0.00" lane="left_0" pos="7.13" speed="15.84" angle="171.68" x="-0.81" y="24.38"/>
        <vehicle id="cfm_3" eclass="HBEFA3/PC_G_EU4" CO2="17053.50" CO="294.77" HC="1.76" NOx="7.64" PMx="0.40" fuel="7.33" electricity="0.00" noise="79.40" route="routeleft" type="cfm" waiting="0.00" lane="left_0" pos="31.97" speed="14.26" angle="126.88" x="13.86" y="3.59"/>
        <vehicle id="rl_0" eclass="HBEFA3/PC_G_EU4" CO2="2668.57" CO="153.49" HC="0.76" NOx="1.21" PMx="0.06" fuel="1.15" electricity="0.00" noise="59.36" route="routebottom" type="rl" waiting="0.00" lane="bottom_0" pos="0.30" speed="0.70" angle="93.94" x="32.17" y="-1.65"/>
        <vehicle id="rl_1" eclass="HBEFA3/PC_G_EU4" CO2="2815.94" CO="145.21" HC="0.73" NOx="1.26" PMx="0.06" fuel="1.21" electricity="0.00" noise="60.82" route="routebottom" type="rl" waiting="0.00" lane="bottom_0" pos="25.83" speed="1.37" angle="48.01" x="56.12" y="8.79"/>
        <vehicle id="rl_2" eclass="HBEFA3/PC_G_EU4" CO2="3522.68" CO="157.69" HC="0.80" NOx="1.59" PMx="0.08" fuel="1.51" electricity="0.00" noise="68.61" route="routeright" type="rl" waiting="0.00" lane="right_0" pos="0.52" speed="1.50" angle="3.54" x="65.30" y="32.41"/>
        <vehicle id="rl_3" eclass="HBEFA3/PC_G_EU4" CO2="0.00" CO="0.00" HC="0.00" NOx="0.00" PMx="0.00" fuel="0.00" electricity="0.00" noise="55.94" route="routeright" type="rl" waiting="0.40" lane="right_0" pos="25.04" speed="0.00" angle="319.47" x="55.48" y="55.53"/>
    </timestep>
    <timestep time="1.00">
        <vehicle id="cfm_0" eclass="HBEFA3/PC_G_EU4" CO2="94796.61" CO="1880.13" HC="10.91" NOx="44.24" PMx="2.42" fuel="40.75" electricity="0.00" noise="150.71" route="routetop" type="cfm" waiting="0.00" lane="top_0" pos="8.91" speed="17.82" angle="258.33" x="22.57" y="64.00"/>
        <vehicle id="cfm_1" eclass="HBEFA3/PC_G_EU4" CO2="94796.61" CO="1880.13" HC="10.91" NOx="44.24" PMx="2.42" fuel="40.75" electricity="0.00" noise="150.71" route="routetop" type="cfm" waiting="0.00" lane="top_0" pos="33.91" speed="17.82" angle="213.50" x="2.55" y="48.05"/>
        <vehicle id="cfm_2" eclass="HBEFA3/PC_G_EU4" CO2="94796.61" CO="1880.13" HC="10.91" NOx="44.24" PMx="2.42" fuel="40.75" electricity="0.00" noise="150.71" route="routeleft" type="cfm" waiting="0.00" lane="left_0" pos="8.91" speed="17.82" angle="168.33" x="-0.34" y="22.57"/>
        <vehicle id="cfm_3" eclass="HBEFA3/PC_G_EU4" CO2="0.00" CO="0.00" HC="0.00" NOx="0.00" PMx="0.00" fuel="0.00" electricity="0.00" noise="60.46" route="routeleft" type="cfm" waiting="0.00" lane="left_0" pos="33.27" speed="13.02" angle="124.64" x="15.03" y="2.87"/>
        <vehicle id="rl_0" eclass="HBEFA3/PC_G_EU4" CO2="3275.86" CO="160.96" HC="0.81" NOx="1.48" PMx="0.08" fuel="1.41" electricity="0.00" noise="69.39" route="routebottom" type="rl" waiting="0.00" lane="bottom_0" pos="0.40" speed="1.00" angle="93.76" x="32.28" y="-1.64"/>
        <vehicle id="rl_1" eclass="HBEFA3/PC_G_EU4" CO2="2836.89" CO="143.98" HC="0.72" NOx="1.26" PMx="0.06" fuel="1.22" electricity="0.00" noise="60.93" route="routebottom" type="rl" waiting="0.00" lane="bottom_0" pos="25.98" speed="1.47" angle="47.74" x="56.22" y="8.90"/>
        <vehicle id="rl_2" eclass="HBEFA3/PC_G_EU4" CO2="0.00" CO="0.00" HC="0.00" NOx="0.00" PMx="0.00" fuel="0.00" electricity="0.00" noise="46.18" route="routeright" type="rl" waiting="0.00" lane="right_0" pos="0.65" speed="1.26" angle="3.32" x="65.30" y="32.54"/>
        <vehicle id="rl_3" eclass="HBEFA3/PC_G_EU4" CO2="2705.37" CO="162.88" HC="0.81" NOx="1.24" PMx="0.07" fuel="1.16" electricity="0.00" noise="64.91" route="routeright" type="rl" waiting="0.00" lane="right_0" pos="25.06" speed="0.20" angle="319.44" x="55.46" y="55.55"/>
    </timestep>
    <timestep time="1.10">
        <vehicle id="cfm_0" eclass="HBEFA3/PC_G_EU4" CO2="100174.57" CO="1987.08" HC="11.53" NOx="46.73" PMx="2.56" fuel="43.06" electricity="0.00" noise="147.58" route="routetop" type="cfm" waiting="0.00" lane="top_0" pos="10.88" speed="19.71" angle="254.82" x="20.60" y="63.36"/>
        <vehicle id="cfm_1" eclass="HBEFA3/PC_G_EU4" CO2="100174.57" CO="1987.08" HC="11.53" NOx="46.73" PMx="2.56" fuel="43.06" electricity="0.00" noise="147.58" route="routetop" type="cfm" waiting="0.00" lane="top_0" pos="35.88" speed="19.71" angle="209.95" x="1.59" y="46.21"/>
        <vehicle id="cfm_2" eclass="HBEFA3/PC_G_EU4" CO2="50106.20" CO="957.74" HC="5.60" NOx="23.12" PMx="1.26" fuel="21.54" electricity="0.00" noise="106.40" route="routeleft" type="cfm" waiting="0.00" lane="left_0" pos="10.79" speed="18.78" angle="164.93" x="0.27" y="20.69"/>
        <vehicle id="cfm_3" eclass="HBEFA3/PC_G_EU4" CO2="0.00" CO="0.00" HC="0.00" NOx="0.00" PMx="0.00" fuel="0.00" electricity="0.00" noise="59.29" route="routeleft" type="cfm" waiting="0.00" lane="left_0" pos="34.47" speed="11.93" angle="122.39" x="16.13" y="2.27"/>
        <vehicle id="rl_0" eclass="HBEFA3/PC_G_EU4" CO2="3472.64" CO="160.04" HC="0.81" NOx="1.57" PMx="0.08" fuel="1.49" electricity="0.00" noise="69.50" route="routebottom" type="rl" waiting="0.00" lane="bottom_0" pos="0.53" speed="1.30" angle="93.53" x="32.41" y="-1.64"/>
        <vehicle id="rl_1" eclass="HBEFA3/PC_G_EU4" CO2="3354.32" CO="151.19" HC="0.77" NOx="1.50" PMx="0.08" fuel="1.44" electricity="0.00" noise="65.86" route="routebottom" type="rl" waiting="0.00" lane="bottom_0" pos="26.15" speed="1.69" angle="47.44" x="56.34" y="9.03"/>
        <vehicle id="rl_2" eclass="HBEFA3/PC_G_EU4" CO2="0.00" CO="0.00" HC="0.00" NOx="0.00" PMx="0.00" fuel="0.00" electricity="0.00" noise="56.42" route="routeright" type="rl" waiting="0.00" lane="right_0" pos="0.77" speed="1.26" angle="3.09" x="65.30" y="32.67"/>
        <vehicle id="rl_3" eclass="HBEFA3/PC_G_EU4" CO2="0.00" CO="0.00" HC="0.00" NOx="0.00" PMx="0.00" fuel="0.00" electricity="0.00" noise="53.62" route="routeright" type="rl" waiting="0.00" lane="right_0" pos="25.07" speed="0.15" angle="319.41" x="55.45" y="55.56"/>
    </timestep>
    <timestep time="1.20">
        <vehicle id="cfm_0" eclass="HBEFA3/PC_G_EU4" CO2="0.00" CO="0.00" HC="0.00" NOx="0.00" PMx="0.00" fuel="0.00" electricity="0.00" noise="65.72" route="routetop" type="cfm" waiting="0.00" lane="top_0" pos="12.80" speed="19.15" angle="251.41" x="18.72" y="62.64"/>
        <vehicle id="cfm_1" eclass="HBEFA3/PC_G_EU4" CO2="0.00" CO="0.00" HC="0.00" NOx="0.00" PMx="0.00" fuel="0.00" electricity="0.00" noise="65.86" route="routetop" type="cfm" waiting="0.00" lane="top_0" pos="37.81" speed="19.30" angle="206.42" x="0.79" y="44.35"/>
        <vehicle id="cfm_2" eclass="HBEFA3/PC_G_EU4" CO2="0.00" CO="0.00" HC="0.00" NOx="0.00" PMx="0.00" fuel="0.00" electricity="0.00" noise="64.61" route="routeleft" type="cfm" waiting="0.00" lane="left_0" pos="12.56" speed="17.68" angle="161.78" x="0.93" y="18.96"/>
        <vehicle id="cfm_3" eclass="HBEFA3/PC_G_EU4" CO2="0.00" CO="0.00" HC="0.00" NOx="0.00" PMx="0.00" fuel="0.00" electricity="0.00" noise="57.71" route="routeleft" type="cfm" waiting="0.00" lane="left_0" pos="35.52" speed="10.59" angle="120.57" x="17.12" y="1.76"/>
        <vehicle id="rl_0" eclass="HBEFA3/PC_G_EU4" CO2="289962.62" CO="5935.21" HC="34.23" NOx="136.49" PMx="7.53" fuel="124.64" electricity="0.00" noise="495.28" route="routebottom" type="rl" waiting="0.00" lane="bottom_0" pos="1.64" speed="11.18" angle="91.56" x="33.59" y="-1.60"/>
        <vehicle id="rl_1" eclass="HBEFA3/PC_G_EU4" CO2="297274.38" CO="6082.95" HC="35.08" NOx="139.93" PMx="7.72" fuel="127.78" electricity="0.00" noise="493.25" route="routebottom" type="rl" waiting="0.00" lane="bottom_0" pos="27.30" speed="11.52" angle="45.41" x="57.15" y="9.93"/>