<?xml version="1.0" encoding="UTF-8"?>

<!-- generated on Mon Jan 30 18:52:02 2017 by SUMO Version 0.27.1
<?xml version="1.0" encoding="UTF-8"?>

<configuration xmlns:xsi="http://www.w3.org/2001/XMLSchema-instance" xsi:noNamespaceSchemaLocation="http://sumo.dlr.de/xsd/sumoConfiguration.xsd">

    <input>
        <net-file value="/Users/kanaad/code/research/learning-traffic/sumo/learning-traffic/cistar/debug/cfg/test-exp-200m1l.net.xml"/>
        <route-files value="/Users/kanaad/code/research/learning-traffic/sumo/learning-traffic/cistar/debug/cfg/test-exp-200m1l.rou.xml"/>
        <additional-files value="/Users/kanaad/code/research/learning-traffic/sumo/learning-traffic/cistar/debug/cfg/test-exp-200m1l.add.xml"/>
    </input>

    <output>
        <netstate-dump value="/Users/kanaad/code/research/learning-traffic/sumo/learning-traffic/cistar/debug/cfg/data/test-exp-200m1l.netstate.xml"/>
        <emission-output value="/Users/kanaad/code/research/learning-traffic/sumo/learning-traffic/cistar/debug/cfg/data/test-exp-200m1l.emission.xml"/>
        <amitran-output value="/Users/kanaad/code/research/learning-traffic/sumo/learning-traffic/cistar/debug/cfg/data/test-exp-200m1l.amitran.xml"/>
        <lanechange-output value="/Users/kanaad/code/research/learning-traffic/sumo/learning-traffic/cistar/debug/cfg/data/test-exp-200m1l.lanechange.xml"/>
    </output>

    <time>
        <begin value="0"/>
        <end value="3000"/>
        <step-length value="0.1"/>
    </time>

    <traci_server>
        <remote-port value="8873"/>
    </traci_server>

    <gui_only>
        <gui-settings-file value="/Users/kanaad/code/research/learning-traffic/sumo/learning-traffic/cistar/debug/cfg/test-exp-200m1l.gui.cfg"/>
    </gui_only>

</configuration>
-->

<emission-export xmlns:xsi="http://www.w3.org/2001/XMLSchema-instance" xsi:noNamespaceSchemaLocation="http://sumo.dlr.de/xsd/emission_file.xsd">
    <timestep time="0.00">
        <vehicle id="rl_0" eclass="HBEFA2/P_7_7" CO2="601.69" CO="6.37" HC="0.35" NOx="0.84" PMx="0.02" fuel="0.24" electricity="0.00" noise="55.94" route="routeleft" type="rl" waiting="0.00" lane="left_0" pos="5.10" speed="0.00" angle="175.34" x="-0.81" y="53.22"/>
        <vehicle id="rl_1" eclass="HBEFA2/P_7_7" CO2="601.69" CO="6.37" HC="0.35" NOx="0.84" PMx="0.02" fuel="0.24" electricity="0.00" noise="55.94" route="routeright" type="rl" waiting="0.00" lane="right_0" pos="5.10" speed="0.00" angle="355.35" x="128.14" y="74.10"/>
    </timestep>
    <timestep time="0.10">
        <vehicle id="rl_0" eclass="HBEFA2/P_7_7" CO2="601.69" CO="6.37" HC="0.35" NOx="0.84" PMx="0.02" fuel="0.24" electricity="0.00" noise="55.94" route="routeleft" type="rl" waiting="0.00" lane="left_0" pos="10.46" speed="0.00" angle="175.34" x="1.86" y="42.57"/>
        <vehicle id="rl_1" eclass="HBEFA2/P_7_7" CO2="601.69" CO="6.37" HC="0.35" NOx="0.84" PMx="0.02" fuel="0.24" electricity="0.00" noise="55.94" route="routeright" type="rl" waiting="0.00" lane="right_0" pos="10.46" speed="0.00" angle="355.35" x="125.47" y="84.75"/>
    </timestep>
    <timestep time="0.20">
        <vehicle id="rl_0" eclass="HBEFA2/P_7_7" CO2="601.69" CO="6.37" HC="0.35" NOx="0.84" PMx="0.02" fuel="0.24" electricity="0.00" noise="55.94" route="routeleft" type="rl" waiting="0.00" lane="left_0" pos="10.46" speed="0.00" angle="175.34" x="1.86" y="42.57"/>
        <vehicle id="rl_1" eclass="HBEFA2/P_7_7" CO2="601.69" CO="6.37" HC="0.35" NOx="0.84" PMx="0.02" fuel="0.24" electricity="0.00" noise="55.94" route="routeright" type="rl" waiting="0.00" lane="right_0" pos="10.46" speed="0.00" angle="355.35" x="125.47" y="84.75"/>
    </timestep>
</emission-export>
