<?xml version='1.0' encoding='UTF-8'?>
<configuration xmlns:xsi="http://www.w3.org/2001/XMLSchema-instance" xsi:noNamespaceSchemaLocation="http://sumo.dlr.de/xsd/sumoConfiguration.xsd">
  <input>
    <net-file value="net/loopsim-840m2l-840m2l.net.xml"/>
    <route-files value="loopsim-840m2l-human011-fillgapmidpoint001-Sugiyama-sigma=0.900000-run=0.rou.xml"/>
    <additional-files value="loopsim-840m2l-human011-fillgapmidpoint001-Sugiyama-sigma=0.900000-run=0.add.xml"/>
    <gui-settings-file value="loopsim-840m2l-human011-fillgapmidpoint001-Sugiyama-sigma=0.900000-run=0.gui.cfg"/>
  </input>
  <output>
    <lanechange-output value="data/loopsim-840m2l-human011-fillgapmidpoint001-Sugiyama-sigma=0.900000-run=0.lanechange.xml"/>
    <amitran-output value="data/loopsim-840m2l-human011-fillgapmidpoint001-Sugiyama-sigma=0.900000-run=0.amitran.xml"/>
    <netstate-dump value="data/loopsim-840m2l-human011-fillgapmidpoint001-Sugiyama-sigma=0.900000-run=0.netstate.xml"/>
    <emission-output value="data/loopsim-840m2l-human011-fillgapmidpoint001-Sugiyama-sigma=0.900000-run=0.emission.xml"/>
  </output>
  <time>
    <begin value="0"/>
    <end value="3000"/>
  </time>
</configuration>
